<LesHouchesEvents version="3.0">
<header>
<!--
#*********************************************************************
#                                                                    *
#                        MadGraph5_aMC@NLO                           *
#                                                                    *
#                           Going Beyond                             *
#                                                                    *
#                   http://madgraph.hep.uiuc.edu                     *
#                   http://madgraph.phys.ucl.ac.be                   *
#                   http://amcatnlo.cern.ch                          *
#                                                                    *
#                     The MadGraph5_aMC@NLO team                     *
#                                                                    *
#....................................................................*
#                                                                    *
# This file contains all the information necessary to reproduce      *
# the events generated:                                              *
#                                                                    *
# 1. software version                                                *
# 2. proc_card          : code generation info including model       *
# 3. param_card         : model primary parameters in the LH format  *
# 4. run_card           : running parameters (collider and cuts)     *
# 5. pythia_card        : present only if pythia has been run        *
# 6. pgs_card           : present only if pgs has been run           *
# 7. delphes_cards      : present only if delphes has been run       *
#                                                                    *
#                                                                    *
#*********************************************************************
-->
<MGVersion>
2.9.9
</MGVersion>
<MG5ProcCard>
<![CDATA[
#************************************************************
#*                     MadGraph5_aMC@NLO                    *
#*                                                          *
#*                *                       *                 *
#*                  *        * *        *                   *
#*                    * * * * 5 * * * *                     *
#*                  *        * *        *                   *
#*                *                       *                 *
#*                                                          *
#*                                                          *
#*         VERSION 2.9.9                 2022-02-25         *
#*                                                          *
#*    The MadGraph5_aMC@NLO Development Team - Find us at   *
#*    https://server06.fynu.ucl.ac.be/projects/madgraph     *
#*                                                          *
#************************************************************
#*                                                          *
#*               Command File for MadGraph5_aMC@NLO         *
#*                                                          *
#*     run as ./bin/mg5_aMC  filename                       *
#*                                                          *
#************************************************************
set group_subprocesses Auto
set ignore_six_quark_processes False
set low_mem_multicore_nlo_generation False
set complex_mass_scheme False
set gauge unitary
set loop_optimized_output True
set loop_color_flows False
set max_npoint_for_channel 0
set default_unset_couplings 99
set max_t_for_channel 99
set zerowidth_tchannel True
import model loop_sm-no_b_mass
define p = g u c d s u~ c~ d~ s~
define j = g u c d s u~ c~ d~ s~
define l+ = e+ mu+
define l- = e- mu-
define vl = ve vm vt
define vl~ = ve~ vm~ vt~
define p = 21 2 4 1 3 -2 -4 -1 -3 5 -5 # pass to 5 flavors
define j = p
define p = p b b~
define j = j b b~
generate p p > h [QCD]
output HToTauTauGamma_NLO_5f -nojpeg
]]>
</MG5ProcCard>
<MGProcCard>
#*********************************************************************
#                        MadGraph/MadEvent                           *
#                   http://madgraph.hep.uiuc.edu                     *
#                                                                    *
#                          proc_card.dat                             *
#*********************************************************************
#                                                                    *
#            This Files is generated by MADGRAPH 5                   *
#                                                                    *
# WARNING: This Files is generated for MADEVENT (compatibility issue)*
#          This files is NOT a valid MG4 proc_card.dat               *
#          Running this in MG4 will NEVER reproduce the result of MG5*
#                                                                    *
#*********************************************************************
#*********************************************************************
# Process(es) requested : mg2 input                                  *
#*********************************************************************
# Begin PROCESS # This is TAG. Do not modify this line
p p > h [QCD]           #Process
# Be carefull the coupling are here in MG5 convention
          
end_coup           # End the couplings input

done               # this tells MG there are no more procs
# End PROCESS  # This is TAG. Do not modify this line
#*********************************************************************
# Model information                                                  *
#*********************************************************************
# Begin MODEL  # This is TAG. Do not modify this line
loop_sm-no_b_mass
# End   MODEL  # This is TAG. Do not modify this line
#*********************************************************************
# Start multiparticle definitions                                    *
#*********************************************************************
# Begin MULTIPARTICLES # This is TAG. Do not modify this line

# End  MULTIPARTICLES # This is TAG. Do not modify this line
</MGProcCard>
<MGRunCard>
<![CDATA[
#*********************************************************************
#                       MadGraph5_aMC@NLO                            *
#                                                                    *
#                     run_card.dat MadEvent                          *
#                                                                    *
#  This file is used to set the parameters of the run.               *
#                                                                    *
#  Some notation/conventions:                                        *
#                                                                    *
#   Lines starting with a '# ' are info or comments                  *
#                                                                    *
#   mind the format:   value    = variable     ! comment             *
#                                                                    *
#   To display more options, you can type the command:               *
#      update to_full                                                *
#*********************************************************************
#                                                                    
#*********************************************************************
# Tag name for the run (one word)                                    *
#*********************************************************************
  tag_1	= run_tag ! name of the run 
#*********************************************************************
# Number of events and rnd seed                                      *
# Warning: Do not generate more than 1M events in a single run       *
#*********************************************************************
  5000	= nevents ! Number of unweighted events requested 
 234567 = iseed ! rnd seed (0=assigned automatically=default))
#*********************************************************************
# Collider type and energy                                           *
# lpp: 0=No PDF, 1=proton, -1=antiproton, 2=photon from proton,      *
#                3=photon from electron, 4=photon from muon          *
#*********************************************************************
  1	= lpp1 ! beam 1 type 
  1	= lpp2 ! beam 2 type
  6800.0	= ebeam1 ! beam 1 total energy in GeV
  6800.0	= ebeam2 ! beam 2 total energy in GeV
# To see polarised beam options: type "update beam_pol"

#*********************************************************************
# PDF CHOICE: this automatically fixes also alpha_s and its evol.    *
#*********************************************************************
  lhapdf	= pdlabel ! PDF set                                     
  325300	= lhaid ! if pdlabel=lhapdf, this is the lhapdf number
# To see heavy ion options: type "update ion_pdf"
#*********************************************************************
# Renormalization and factorization scales                           *
#*********************************************************************
  False	= fixed_ren_scale ! if .true. use fixed ren scale
  False	= fixed_fac_scale ! if .true. use fixed fac scale
  91.188	= scale ! fixed ren scale
  91.188	= dsqrt_q2fact1 ! fixed fact scale for pdf1
  91.188	= dsqrt_q2fact2 ! fixed fact scale for pdf2
  -1	= dynamical_scale_choice ! Choose one of the preselected dynamical choices
  1.0	= scalefact ! scale factor for event-by-event scales
#*********************************************************************
# Type and output format
#*********************************************************************
  True	= gridpack !True = setting up the grid pack
  -1.0	= time_of_flight ! threshold (in mm) below which the invariant livetime is not written (-1 means not written)
  average	= event_norm ! average/sum. Normalization of the weight in the LHEF
# To see MLM/CKKW  merging options: type "update MLM" or "update CKKW"

#*********************************************************************
#
#*********************************************************************
# Phase-Space Optimization strategy (basic options)
#*********************************************************************
  1	= nhel ! using helicities importance sampling or not.
                             ! 0: sum over helicity, 1: importance sampling
  2	= sde_strategy ! default integration strategy (hep-ph/2021.00773)
                             ! 1 is old strategy (using amp square)
			     ! 2 is new strategy (using only the denominator)
# To see advanced option for Phase-Space optimization: type "update psoptim"			     
#*********************************************************************
# Generation bias, check the wiki page below for more information:   *
#  'cp3.irmp.ucl.ac.be/projects/madgraph/wiki/LOEventGenerationBias' *
#*********************************************************************
  None	= bias_module ! Bias type of bias, [None, ptj_bias, -custom_folder-]
  {}	= bias_parameters ! Specifies the parameters of the module.
#
#*******************************                                                 
# Parton level cuts definition *
#*******************************                                     
#                                                                    
#
#*********************************************************************
# BW cutoff (M+/-bwcutoff*Gamma) ! Define on/off-shell for "$" and decay  
#*********************************************************************
  15.0	= bwcutoff ! (M+/-bwcutoff*Gamma)
#*********************************************************************
# Standard Cuts                                                      *
#*********************************************************************
# Minimum and maximum pt's (for max, -1 means no cut)                *
#*********************************************************************
  {}	= pt_min_pdg ! pt cut for other particles (use pdg code). Applied on particle and anti-particle
  {}	= pt_max_pdg ! pt cut for other particles (syntax e.g. {6: 100, 25: 50}) 
#
# For display option for energy cut in the partonic center of mass frame type 'update ecut'
#
#*********************************************************************
# Maximum and minimum absolute rapidity (for max, -1 means no cut)   *
#*********************************************************************
  {}	= eta_min_pdg ! rap cut for other particles (use pdg code). Applied on particle and anti-particle
  {}	= eta_max_pdg ! rap cut for other particles (syntax e.g. {6: 2.5, 23: 5})
#*********************************************************************
# Minimum and maximum DeltaR distance                                *
#*********************************************************************
#*********************************************************************
# Minimum and maximum invariant mass for pairs                       *
#*********************************************************************
  {}	= mxx_min_pdg ! min invariant mass of a pair of particles X/X~ (e.g. {6:250})
  {'default': False}	= mxx_only_part_antipart ! if True the invariant mass is applied only 
                       ! to pairs of particle/antiparticle and not to pairs of the same pdg codes.  
#*********************************************************************
# Inclusive cuts                                                     *
#*********************************************************************
  0.0	= ptheavy ! minimum pt for at least one heavy final state
#*********************************************************************
# maximal pdg code for quark to be considered as a light jet         *
# (otherwise b cuts are applied)                                     *
#*********************************************************************
  5	= maxjetflavor ! Maximum jet pdg code
#*********************************************************************
#
#*********************************************************************
# Store info for systematics studies                                 *
# WARNING: Do not use for interference type of computation           *
#*********************************************************************
  True	= use_syst ! Enable systematics studies
#
  None	= systematics_program ! none, systematics [python], SysCalc [depreceted, C++]
  ['--mur=0.5,1,2', '--muf=0.5,1,2', '--pdf=errorset']	= systematics_arguments ! see: https://cp3.irmp.ucl.ac.be/projects/madgraph/wiki/Systematics#Systematicspythonmodule
# Syscalc is deprecated but to see the associate options type'update syscalc'
]]>
</MGRunCard>
<slha>
######################################################################
## PARAM_CARD AUTOMATICALY GENERATED BY MG5 FOLLOWING UFO MODEL   ####
######################################################################
##                                                                  ##
##  Width set on Auto will be computed following the information    ##
##        present in the decay.py files of the model.               ##
##        See  arXiv:1402.1178 for more details.                    ##
##                                                                  ##
######################################################################

###################################
## INFORMATION FOR CKMBLOCK
###################################
Block ckmblock 
    1 2.277360e-01 # cabi 

###################################
## INFORMATION FOR MASS
###################################
Block mass 
    1 5.040000e-03 # MD 
    2 2.550000e-03 # MU 
    3 1.010000e-01 # MS 
    4 1.270000e+00 # MC 
    5 4.700000e+00 # MB 
    6 1.720000e+02 # MT 
   11 5.110000e-04 # Me 
   13 1.056600e-01 # MMU 
   15 1.777000e+00 # MTA 
   23 9.118760e+01 # MZ 
   25 1.250000e+02 # MH 
## Dependent parameters, given by model restrictions.
## Those values should be edited following the 
## analytical expression. MG5 ignores those values 
## but they are important for interfacing the output of MG5
## to external program such as Pythia.
  12 0.000000e+00 # ve : 0.0 
  14 0.000000e+00 # vm : 0.0 
  16 0.000000e+00 # vt : 0.0 
  21 0.000000e+00 # g : 0.0 
  22 0.000000e+00 # a : 0.0 
  24 7.982436e+01 # w+ : cmath.sqrt(MZ__exp__2/2. + cmath.sqrt(MZ__exp__4/4. - (aEW*cmath.pi*MZ__exp__2)/(Gf*sqrt__2))) 

###################################
## INFORMATION FOR SMINPUTS
###################################
Block sminputs 
    1 1.279000e+02 # aEWM1 
    2 1.166370e-05 # Gf 
    3 1.184000e-01 # aS (Note that Parameter not used if you use a PDF set) 

###################################
## INFORMATION FOR YUKAWA
###################################
Block yukawa 
    1 5.040000e-03 # ymdo 
    2 2.550000e-03 # ymup 
    3 1.010000e-01 # yms 
    4 1.270000e+00 # ymc 
    5 4.700000e+00 # ymb 
    6 1.720000e+02 # ymt 
   11 5.110000e-04 # yme 
   13 1.056600e-01 # ymm 
   15 1.777000e+00 # ymtau 

###################################
## INFORMATION FOR DECAY
###################################
DECAY   6 1.508336e+00 # WT 
DECAY  23 2.495200e+00 # WZ 
DECAY  24 2.085000e+00 # WW 
DECAY  25 4.070000e-03 # WH 
## Dependent parameters, given by model restrictions.
## Those values should be edited following the 
## analytical expression. MG5 ignores those values 
## but they are important for interfacing the output of MG5
## to external program such as Pythia.
DECAY  1 0.000000e+00 # d : 0.0 
DECAY  2 0.000000e+00 # u : 0.0 
DECAY  3 0.000000e+00 # s : 0.0 
DECAY  4 0.000000e+00 # c : 0.0 
DECAY  5 0.000000e+00 # b : 0.0 
DECAY  11 0.000000e+00 # e- : 0.0 
DECAY  12 0.000000e+00 # ve : 0.0 
DECAY  13 0.000000e+00 # mu- : 0.0 
DECAY  14 0.000000e+00 # vm : 0.0 
DECAY  15 0.000000e+00 # ta- : 0.0 
DECAY  16 0.000000e+00 # vt : 0.0 
DECAY  21 0.000000e+00 # g : 0.0 
DECAY  22 0.000000e+00 # a : 0.0
</slha>
<MGGenerationInfo>
#  Number of Events        :       1000
#  Integrated weight (pb)  :       15.057
</MGGenerationInfo>
<slha_original>
######################################################################
## PARAM_CARD AUTOMATICALY GENERATED BY MG5 FOLLOWING UFO MODEL   ####
######################################################################
##                                                                  ##
##  Width set on Auto will be computed following the information    ##
##        present in the decay.py files of the model.               ##
##        See  arXiv:1402.1178 for more details.                    ##
##                                                                  ##
######################################################################

###################################
## INFORMATION FOR MASS
###################################
Block mass 
    6 1.730000e+02 # MT 
   15 1.777000e+00 # MTA 
   23 9.118800e+01 # MZ 
   25 1.250000e+02 # MH 
## Dependent parameters, given by model restrictions.
## Those values should be edited following the 
## analytical expression. MG5 ignores those values 
## but they are important for interfacing the output of MG5
## to external program such as Pythia.
  1 0.000000e+00 # d : 0.0 
  2 0.000000e+00 # u : 0.0 
  3 0.000000e+00 # s : 0.0 
  4 0.000000e+00 # c : 0.0 
  5 0.000000e+00 # b : 0.0 
  11 0.000000e+00 # e- : 0.0 
  12 0.000000e+00 # ve : 0.0 
  13 0.000000e+00 # mu- : 0.0 
  14 0.000000e+00 # vm : 0.0 
  16 0.000000e+00 # vt : 0.0 
  21 0.000000e+00 # g : 0.0 
  22 0.000000e+00 # a : 0.0 
  24 8.041900e+01 # w+ : cmath.sqrt(MZ__exp__2/2. + cmath.sqrt(MZ__exp__4/4. - (aEW*cmath.pi*MZ__exp__2)/(Gf*sqrt__2))) 

###################################
## INFORMATION FOR SMINPUTS
###################################
Block sminputs 
    1 1.325070e+02 # aEWM1 
    2 1.166390e-05 # Gf 
    3 1.180000e-01 # aS (Note that Parameter not used if you use a PDF set) 

###################################
## INFORMATION FOR YUKAWA
###################################
Block yukawa 
    6 1.730000e+02 # ymt 
   15 1.777000e+00 # ymtau 

###################################
## INFORMATION FOR DECAY
###################################
DECAY   6 1.491500e+00 # WT 
DECAY  23 2.441404e+00 # WZ 
DECAY  24 2.047600e+00 # WW 
DECAY  25 6.382339e-03 # WH 
## Dependent parameters, given by model restrictions.
## Those values should be edited following the 
## analytical expression. MG5 ignores those values 
## but they are important for interfacing the output of MG5
## to external program such as Pythia.
DECAY  1 0.000000e+00 # d : 0.0 
DECAY  2 0.000000e+00 # u : 0.0 
DECAY  3 0.000000e+00 # s : 0.0 
DECAY  4 0.000000e+00 # c : 0.0 
DECAY  5 0.000000e+00 # b : 0.0 
DECAY  11 0.000000e+00 # e- : 0.0 
DECAY  12 0.000000e+00 # ve : 0.0 
DECAY  13 0.000000e+00 # mu- : 0.0 
DECAY  14 0.000000e+00 # vm : 0.0 
DECAY  15 0.000000e+00 # ta- : 0.0 
DECAY  16 0.000000e+00 # vt : 0.0 
DECAY  21 0.000000e+00 # g : 0.0 
DECAY  22 0.000000e+00 # a : 0.0 
#===========================================================
# QUANTUM NUMBERS OF NEW STATE(S) (NON SM PDG CODE)
#===========================================================

Block QNUMBERS 82  # gh 
        1 0  # 3 times electric charge
        2 1  # number of spin states (2S+1)
        3 8  # colour rep (1: singlet, 3: triplet, 8: octet)
        4 1  # Particle/Antiparticle distinction (0=own anti)
</slha_original>
<madspin>
set seed 731950406
import /afs/cern.ch/user/b/ballmond/public/genproductions/bin/MadGraph5_aMCatNLO/HToTauTauGamma_NLO_5f/HToTauTauGamma_NLO_5f_gridpack/work/unweighted_events.lhe.gz
import model DipoleMomentMid_UFO --bypass_check
set ms_dir ./madspingrid
set Nevents_for_max_weight 5 
set max_weight_ps_point 400 
set max_running_process 1
set spinmode=none
define l+=ta+
define l-=ta-
decay h > l+ l- a
launch
</madspin>
</header>
<init>
2212 2212 6.800000e+03 6.800000e+03 0 0 325300 325300 -4 1
   +9.8758382e+01 +1.1228953e-01 +9.8758382e+01 0
<generator name='MadGraph5_aMC@NLO' version='2.9.9'>please cite 1405.0301 </generator>
</init>
<event>
 6      0 +9.8758382e+01 1.25000000e+02 7.54677100e-03 1.12640300e-01
       21 -1    0    0  502  501 +0.0000000000e+00 +0.0000000000e+00 +3.8122521958e+02 3.8122521958e+02 0.0000000000e+00 0.0000e+00 1.0000e+00
       21 -1    0    0  501  502 -0.0000000000e+00 -0.0000000000e+00 -1.0246567644e+01 1.0246567644e+01 0.0000000000e+00 0.0000e+00 1.0000e+00
       25  2    1    2    0    0 +0.0000000000e+00 +0.0000000000e+00 +3.7097865194e+02 3.9147178723e+02 1.2500000000e+02 0.0000e+00 0.0000e+00
      -15  1    3    3    0    0 -6.0939293472e+00 +2.6695359490e+01 +8.0695607288e+01 8.5233308968e+01 1.7770000000e+00 0.0000e+00 -1.0000e+00
       15  1    3    3    0    0 +3.5705102076e+01 +1.0095916136e+01 +2.0862864449e+02 2.1191000653e+02 1.7770000000e+00 0.0000e+00 -1.0000e+00
       22  1    3    3    0    0 -2.9611172729e+01 -3.6791275625e+01 +8.1654400139e+01 9.4328471707e+01 0.0000000000e+00 0.0000e+00 -1.0000e+00
<mgrwt>
<rscale>  2 0.12500000E+03</rscale>
<asrwt>0</asrwt>
<pdfrwt beam="1">  1       21 0.56062523E-01 0.12500000E+03</pdfrwt>
<pdfrwt beam="2">  1       21 0.15068484E-02 0.12500000E+03</pdfrwt>
<totfact> 0.54451089E+06</totfact>
</mgrwt>
</event>
<event>
 6      0 +9.8758382e+01 1.25000000e+02 7.54677100e-03 1.12640300e-01
       21 -1    0    0  502  501 +0.0000000000e+00 +0.0000000000e+00 +5.5646656211e+01 5.5646656211e+01 0.0000000000e+00 0.0000e+00 -1.0000e+00
       21 -1    0    0  501  502 -0.0000000000e+00 -0.0000000000e+00 -7.0197389493e+01 7.0197389493e+01 0.0000000000e+00 0.0000e+00 -1.0000e+00
       25  2    1    2    0    0 +0.0000000000e+00 +0.0000000000e+00 -1.4550733282e+01 1.2584404570e+02 1.2500000000e+02 0.0000e+00 0.0000e+00
      -15  1    3    3    0    0 +1.4696447864e+01 +1.1892206752e+01 +1.7691404360e+01 2.5952912716e+01 1.7770000000e+00 0.0000e+00 -1.0000e+00
       15  1    3    3    0    0 -1.8134003241e+01 -3.0053571778e+01 +2.2756382913e+01 4.1869678078e+01 1.7770000000e+00 0.0000e+00 -1.0000e+00
       22  1    3    3    0    0 +3.4375553772e+00 +1.8161365026e+01 -5.4998520555e+01 5.8021454909e+01 0.0000000000e+00 0.0000e+00 -1.0000e+00
<mgrwt>
<rscale>  2 0.12500000E+03</rscale>
<asrwt>0</asrwt>
<pdfrwt beam="1">  1       21 0.81833318E-02 0.12500000E+03</pdfrwt>
<pdfrwt beam="2">  1       21 0.10323146E-01 0.12500000E+03</pdfrwt>
<totfact> 0.88840066E+06</totfact>
</mgrwt>
</event>
<event>
 6      0 +9.8758382e+01 1.25000000e+02 7.54677100e-03 1.12640300e-01
       21 -1    0    0  502  501 +0.0000000000e+00 +0.0000000000e+00 +4.7600521663e+01 4.7600521663e+01 0.0000000000e+00 0.0000e+00 -1.0000e+00
       21 -1    0    0  501  502 -0.0000000000e+00 -0.0000000000e+00 -8.2063176274e+01 8.2063176274e+01 0.0000000000e+00 0.0000e+00 -1.0000e+00
       25  2    1    2    0    0 +0.0000000000e+00 +0.0000000000e+00 -3.4462654611e+01 1.2966369794e+02 1.2500000000e+02 0.0000e+00 0.0000e+00
      -15  1    3    3    0    0 -2.4279280367e+01 +1.9375060566e+01 +1.5005440863e+01 3.4542689699e+01 1.7770000000e+00 0.0000e+00 -1.0000e+00
       15  1    3    3    0    0 +2.1018569929e+01 +2.6613059274e+01 -1.3092375049e+01 3.6395098835e+01 1.7770000000e+00 0.0000e+00 -1.0000e+00
       22  1    3    3    0    0 +3.2607104377e+00 -4.5988119840e+01 -3.6375720424e+01 5.8725909404e+01 0.0000000000e+00 0.0000e+00 -1.0000e+00
<mgrwt>
<rscale>  2 0.12500000E+03</rscale>
<asrwt>0</asrwt>
<pdfrwt beam="1">  1       21 0.70000768E-02 0.12500000E+03</pdfrwt>
<pdfrwt beam="2">  1       21 0.12068114E-01 0.12500000E+03</pdfrwt>
<totfact> 0.88159227E+06</totfact>
</mgrwt>
</event>
<event>
 6      0 +9.8758382e+01 1.25000000e+02 7.54677100e-03 1.12640300e-01
       21 -1    0    0  502  501 +0.0000000000e+00 +0.0000000000e+00 +1.2910752982e+01 1.2910752982e+01 0.0000000000e+00 0.0000e+00 -1.0000e+00
       21 -1    0    0  501  502 -0.0000000000e+00 -0.0000000000e+00 -3.0255787602e+02 3.0255787602e+02 0.0000000000e+00 0.0000e+00 -1.0000e+00
       25  2    1    2    0    0 +0.0000000000e+00 +0.0000000000e+00 -2.8964712304e+02 3.1546862900e+02 1.2500000000e+02 0.0000e+00 0.0000e+00
      -15  1    3    3    0    0 -9.9860992793e+00 -3.6642088731e+01 -8.4859143918e+01 9.2987079107e+01 1.7770000000e+00 0.0000e+00 -1.0000e+00
       15  1    3    3    0    0 +2.0219364552e+01 +1.0154850213e+01 -1.8826647935e+02 1.8962955640e+02 1.7770000000e+00 0.0000e+00 -1.0000e+00
       22  1    3    3    0    0 -1.0233265273e+01 +2.6487238518e+01 -1.6521499795e+01 3.2851993515e+01 0.0000000000e+00 0.0000e+00 -1.0000e+00
<mgrwt>
<rscale>  2 0.12500000E+03</rscale>
<asrwt>0</asrwt>
<pdfrwt beam="1">  1       21 0.18986400E-02 0.12500000E+03</pdfrwt>
<pdfrwt beam="2">  1       21 0.44493808E-01 0.12500000E+03</pdfrwt>
<totfact> 0.62205336E+06</totfact>
</mgrwt>
</event>
<event>
 6      0 +9.8758382e+01 1.25000000e+02 7.54677100e-03 1.12640300e-01
       21 -1    0    0  502  501 +0.0000000000e+00 +0.0000000000e+00 +4.5636952005e+00 4.5636952005e+00 0.0000000000e+00 0.0000e+00 1.0000e+00
       21 -1    0    0  501  502 -0.0000000000e+00 -0.0000000000e+00 -8.5594015998e+02 8.5594015998e+02 0.0000000000e+00 0.0000e+00 1.0000e+00
       25  2    1    2    0    0 +0.0000000000e+00 +0.0000000000e+00 -8.5137646478e+02 8.6050385518e+02 1.2500000000e+02 0.0000e+00 0.0000e+00
      -15  1    3    3    0    0 -1.9429146363e+01 +5.7853992886e+00 -7.7959289399e+01 8.0571527887e+01 1.7770000000e+00 0.0000e+00 -1.0000e+00
       15  1    3    3    0    0 +1.0599773989e+01 +4.5422797102e+01 -2.9030537478e+02 2.9403393352e+02 1.7770000000e+00 0.0000e+00 -1.0000e+00
       22  1    3    3    0    0 +8.8293723744e+00 -5.1208196390e+01 -4.8311180066e+02 4.8589839383e+02 0.0000000000e+00 0.0000e+00 -1.0000e+00
<mgrwt>
<rscale>  2 0.12500000E+03</rscale>
<asrwt>0</asrwt>
<pdfrwt beam="1">  1       21 0.67113139E-03 0.12500000E+03</pdfrwt>
<pdfrwt beam="2">  1       21 0.12587360E+00 0.12500000E+03</pdfrwt>
<totfact> 0.25870873E+06</totfact>
</mgrwt>
</event>
<event>
 6      0 +9.8758382e+01 1.25000000e+02 7.54677100e-03 1.12640300e-01
       21 -1    0    0  502  501 +0.0000000000e+00 +0.0000000000e+00 +1.5811880896e+02 1.5811880896e+02 0.0000000000e+00 0.0000e+00 -1.0000e+00
       21 -1    0    0  501  502 -0.0000000000e+00 -0.0000000000e+00 -2.4704524564e+01 2.4704524564e+01 0.0000000000e+00 0.0000e+00 -1.0000e+00
       25  2    1    2    0    0 +0.0000000000e+00 +0.0000000000e+00 +1.3341428440e+02 1.8282333353e+02 1.2500000000e+02 0.0000e+00 0.0000e+00
      -15  1    3    3    0    0 +1.5637749079e+01 -2.6403651100e+01 +7.1181560874e+01 7.7534923262e+01 1.7770000000e+00 0.0000e+00 -1.0000e+00
       15  1    3    3    0    0 -1.1616146468e+01 +4.6214279814e+01 +6.9084944697e+01 8.3943920746e+01 1.7770000000e+00 0.0000e+00 -1.0000e+00
       22  1    3    3    0    0 -4.0216026113e+00 -1.9810628714e+01 -6.8522211761e+00 2.1344489516e+01 0.0000000000e+00 0.0000e+00 -1.0000e+00
<mgrwt>
<rscale>  2 0.12500000E+03</rscale>
<asrwt>0</asrwt>
<pdfrwt beam="1">  1       21 0.23252766E-01 0.12500000E+03</pdfrwt>
<pdfrwt beam="2">  1       21 0.36330184E-02 0.12500000E+03</pdfrwt>
<totfact> 0.79376201E+06</totfact>
</mgrwt>
</event>
<event>
 6      0 +9.8758382e+01 1.25000000e+02 7.54677100e-03 1.12640300e-01
       21 -1    0    0  502  501 +0.0000000000e+00 +0.0000000000e+00 +2.0748289912e+01 2.0748289912e+01 0.0000000000e+00 0.0000e+00 1.0000e+00
       21 -1    0    0  501  502 -0.0000000000e+00 -0.0000000000e+00 -1.8826852799e+02 1.8826852799e+02 0.0000000000e+00 0.0000e+00 1.0000e+00
       25  2    1    2    0    0 +0.0000000000e+00 +0.0000000000e+00 -1.6752023808e+02 2.0901681790e+02 1.2500000000e+02 0.0000e+00 0.0000e+00
      -15  1    3    3    0    0 +2.2626352709e+01 -4.6020411255e+01 -9.4797178551e+01 1.0779375158e+02 1.7770000000e+00 0.0000e+00 -1.0000e+00
       15  1    3    3    0    0 -6.0868158555e+00 -2.2777939932e+00 +4.8898860090e+00 8.3250457617e+00 1.7770000000e+00 0.0000e+00 -1.0000e+00
       22  1    3    3    0    0 -1.6539536853e+01 +4.8298205248e+01 -7.7612945546e+01 9.2898020570e+01 0.0000000000e+00 0.0000e+00 -1.0000e+00
<mgrwt>
<rscale>  2 0.12500000E+03</rscale>
<asrwt>0</asrwt>
<pdfrwt beam="1">  1       21 0.30512189E-02 0.12500000E+03</pdfrwt>
<pdfrwt beam="2">  1       21 0.27686550E-01 0.12500000E+03</pdfrwt>
<totfact> 0.75523297E+06</totfact>
</mgrwt>
</event>
<event>
 6      0 +9.8758382e+01 1.25000000e+02 7.54677100e-03 1.12640300e-01
       21 -1    0    0  502  501 +0.0000000000e+00 +0.0000000000e+00 +4.1789204467e+01 4.1789204467e+01 0.0000000000e+00 0.0000e+00 1.0000e+00
       21 -1    0    0  501  502 -0.0000000000e+00 -0.0000000000e+00 -9.3475098410e+01 9.3475098410e+01 0.0000000000e+00 0.0000e+00 1.0000e+00
       25  2    1    2    0    0 +0.0000000000e+00 +0.0000000000e+00 -5.1685893944e+01 1.3526430288e+02 1.2500000000e+02 0.0000e+00 0.0000e+00
      -15  1    3    3    0    0 +4.7670566533e+01 +9.7582398791e+00 +1.3110499798e+01 5.0425678906e+01 1.7770000000e+00 0.0000e+00 -1.0000e+00
       15  1    3    3    0    0 -1.4414091595e+01 -1.3304763164e+01 -3.4424737697e+01 3.9661102530e+01 1.7770000000e+00 0.0000e+00 -1.0000e+00
       22  1    3    3    0    0 -3.3256474938e+01 +3.5465232847e+00 -3.0371656045e+01 4.5177521442e+01 0.0000000000e+00 0.0000e+00 -1.0000e+00
<mgrwt>
<rscale>  2 0.12500000E+03</rscale>
<asrwt>0</asrwt>
<pdfrwt beam="1">  1       21 0.61454713E-02 0.12500000E+03</pdfrwt>
<pdfrwt beam="2">  1       21 0.13746338E-01 0.12500000E+03</pdfrwt>
<totfact> 0.87159701E+06</totfact>
</mgrwt>
</event>
<event>
 6      0 +9.8758382e+01 1.25000000e+02 7.54677100e-03 1.12640300e-01
       21 -1    0    0  502  501 +0.0000000000e+00 +0.0000000000e+00 +1.4724280401e+01 1.4724280401e+01 0.0000000000e+00 0.0000e+00 1.0000e+00
       21 -1    0    0  501  502 -0.0000000000e+00 -0.0000000000e+00 -2.6529310049e+02 2.6529310049e+02 0.0000000000e+00 0.0000e+00 1.0000e+00
       25  2    1    2    0    0 +0.0000000000e+00 +0.0000000000e+00 -2.5056882009e+02 2.8001738089e+02 1.2500000000e+02 0.0000e+00 0.0000e+00
      -15  1    3    3    0    0 -4.8487207752e+00 -1.4008002452e+01 -5.7337024155e+01 5.9248850569e+01 1.7770000000e+00 0.0000e+00 -1.0000e+00
       15  1    3    3    0    0 -4.2931761379e+01 +1.4562995122e+01 -4.0778385977e+01 6.1002061063e+01 1.7770000000e+00 0.0000e+00 -1.0000e+00
       22  1    3    3    0    0 +4.7780482154e+01 -5.5499267019e-01 -1.5245340996e+02 1.5976646926e+02 0.0000000000e+00 0.0000e+00 -1.0000e+00
<mgrwt>
<rscale>  2 0.12500000E+03</rscale>
<asrwt>0</asrwt>
<pdfrwt beam="1">  1       21 0.21653354E-02 0.12500000E+03</pdfrwt>
<pdfrwt beam="2">  1       21 0.39013690E-01 0.12500000E+03</pdfrwt>
<totfact> 0.66289318E+06</totfact>
</mgrwt>
</event>
<event>
 6      0 +9.8758382e+01 1.25000000e+02 7.54677100e-03 1.12640300e-01
       21 -1    0    0  502  501 +0.0000000000e+00 +0.0000000000e+00 +4.7636625729e+01 4.7636625729e+01 0.0000000000e+00 0.0000e+00 -1.0000e+00
       21 -1    0    0  501  502 -0.0000000000e+00 -0.0000000000e+00 -8.2000980133e+01 8.2000980133e+01 0.0000000000e+00 0.0000e+00 -1.0000e+00
       25  2    1    2    0    0 +0.0000000000e+00 +0.0000000000e+00 -3.4364354404e+01 1.2963760586e+02 1.2500000000e+02 0.0000e+00 0.0000e+00
      -15  1    3    3    0    0 -2.6509523446e+00 +5.1378263299e+00 -4.6844102813e-01 6.0664630327e+00 1.7770000000e+00 0.0000e+00 -1.0000e+00
       15  1    3    3    0    0 +6.7271115071e+00 +5.6564910730e+01 -1.6688558030e+01 5.9384415912e+01 1.7770000000e+00 0.0000e+00 -1.0000e+00
       22  1    3    3    0    0 -4.0761591625e+00 -6.1702737060e+01 -1.7207355346e+01 6.4186726917e+01 0.0000000000e+00 0.0000e+00 -1.0000e+00
<mgrwt>
<rscale>  2 0.12500000E+03</rscale>
<asrwt>0</asrwt>
<pdfrwt beam="1">  1       21 0.70053862E-02 0.12500000E+03</pdfrwt>
<pdfrwt beam="2">  1       21 0.12058968E-01 0.12500000E+03</pdfrwt>
<totfact> 0.88163969E+06</totfact>
</mgrwt>
</event>
<event>
 6      0 +9.8758382e+01 1.25000000e+02 7.54677100e-03 1.12640300e-01
       21 -1    0    0  502  501 +0.0000000000e+00 +0.0000000000e+00 +3.1489682095e+01 3.1489682095e+01 0.0000000000e+00 0.0000e+00 1.0000e+00
       21 -1    0    0  501  502 -0.0000000000e+00 -0.0000000000e+00 -1.2404856893e+02 1.2404856893e+02 0.0000000000e+00 0.0000e+00 1.0000e+00
       25  2    1    2    0    0 +0.0000000000e+00 +0.0000000000e+00 -9.2558886834e+01 1.5553825103e+02 1.2500000000e+02 0.0000e+00 0.0000e+00
      -15  1    3    3    0    0 -1.3086215031e+00 -3.3540697613e+00 -1.2698967911e+00 4.2110142557e+00 1.7770000000e+00 0.0000e+00 -1.0000e+00
       15  1    3    3    0    0 -5.4062391846e+01 -2.3478014820e+01 -4.0390584857e+01 7.1473886603e+01 1.7770000000e+00 0.0000e+00 -1.0000e+00
       22  1    3    3    0    0 +5.5371013350e+01 +2.6832084581e+01 -5.0898405181e+01 7.9853350163e+01 0.0000000000e+00 0.0000e+00 -1.0000e+00
<mgrwt>
<rscale>  2 0.12500000E+03</rscale>
<asrwt>0</asrwt>
<pdfrwt beam="1">  1       21 0.46308356E-02 0.12500000E+03</pdfrwt>
<pdfrwt beam="2">  1       21 0.18242437E-01 0.12500000E+03</pdfrwt>
<totfact> 0.83707014E+06</totfact>
</mgrwt>
</event>
<event>
 6      0 +9.8758382e+01 1.25000000e+02 7.54677100e-03 1.12640300e-01
       21 -1    0    0  502  501 +0.0000000000e+00 +0.0000000000e+00 +3.7867036713e+02 3.7867036713e+02 0.0000000000e+00 0.0000e+00 -1.0000e+00
       21 -1    0    0  501  502 -0.0000000000e+00 -0.0000000000e+00 -1.0315700248e+01 1.0315700248e+01 0.0000000000e+00 0.0000e+00 -1.0000e+00
       25  2    1    2    0    0 +0.0000000000e+00 +0.0000000000e+00 +3.6835466688e+02 3.8898606737e+02 1.2500000000e+02 0.0000e+00 0.0000e+00
      -15  1    3    3    0    0 -2.9455802772e+01 +1.9543024381e+00 +2.0020804455e+01 3.5713498218e+01 1.7770000000e+00 0.0000e+00 -1.0000e+00
       15  1    3    3    0    0 +3.7336496153e+00 +2.1088644099e+01 +8.4577895402e+01 8.7265395026e+01 1.7770000000e+00 0.0000e+00 -1.0000e+00
       22  1    3    3    0    0 +2.5722153157e+01 -2.3042946537e+01 +2.6375596707e+02 2.6600717418e+02 0.0000000000e+00 0.0000e+00 -1.0000e+00
<mgrwt>
<rscale>  2 0.12500000E+03</rscale>
<asrwt>0</asrwt>
<pdfrwt beam="1">  1       21 0.55686809E-01 0.12500000E+03</pdfrwt>
<pdfrwt beam="2">  1       21 0.15170150E-02 0.12500000E+03</pdfrwt>
<totfact> 0.54685684E+06</totfact>
</mgrwt>
</event>
<event>
 6      0 +9.8758382e+01 1.25000000e+02 7.54677100e-03 1.12640300e-01
       21 -1    0    0  502  501 +0.0000000000e+00 +0.0000000000e+00 +8.0651851250e+02 8.0651851250e+02 0.0000000000e+00 0.0000e+00 1.0000e+00
       21 -1    0    0  501  502 -0.0000000000e+00 -0.0000000000e+00 -4.8433482176e+00 4.8433482176e+00 0.0000000000e+00 0.0000e+00 1.0000e+00
       25  2    1    2    0    0 +0.0000000000e+00 +0.0000000000e+00 +8.0167516428e+02 8.1136186072e+02 1.2500000000e+02 0.0000e+00 0.0000e+00
      -15  1    3    3    0    0 +2.7608063885e+01 +2.1133287099e+01 +1.7705184979e+02 1.8044205789e+02 1.7770000000e+00 0.0000e+00 -1.0000e+00
       15  1    3    3    0    0 -3.3571683334e+01 -4.6101694862e+01 +3.0673758815e+02 3.1199924664e+02 1.7770000000e+00 0.0000e+00 -1.0000e+00
       22  1    3    3    0    0 +5.9636194497e+00 +2.4968407763e+01 +3.1788572614e+02 3.1892055598e+02 0.0000000000e+00 0.0000e+00 -1.0000e+00
<mgrwt>
<rscale>  2 0.12500000E+03</rscale>
<asrwt>0</asrwt>
<pdfrwt beam="1">  1       21 0.11860557E+00 0.12500000E+03</pdfrwt>
<pdfrwt beam="2">  1       21 0.71225765E-03 0.12500000E+03</pdfrwt>
<totfact> 0.27812710E+06</totfact>
</mgrwt>
</event>
<event>
 6      0 +9.8758382e+01 1.25000000e+02 7.54677100e-03 1.12640300e-01
       21 -1    0    0  502  501 +0.0000000000e+00 +0.0000000000e+00 +2.6162653041e+02 2.6162653041e+02 0.0000000000e+00 0.0000e+00 -1.0000e+00
       21 -1    0    0  501  502 -0.0000000000e+00 -0.0000000000e+00 -1.4930634114e+01 1.4930634114e+01 0.0000000000e+00 0.0000e+00 -1.0000e+00
       25  2    1    2    0    0 +0.0000000000e+00 +0.0000000000e+00 +2.4669589629e+02 2.7655716452e+02 1.2500000000e+02 0.0000e+00 0.0000e+00
      -15  1    3    3    0    0 +1.6707393808e+01 +9.2046583785e+00 +1.3240482549e+02 1.3378362488e+02 1.7770000000e+00 0.0000e+00 -1.0000e+00
       15  1    3    3    0    0 -2.6136833340e+01 -2.2757600527e+01 +1.2029890875e+02 1.2520394408e+02 1.7770000000e+00 0.0000e+00 -1.0000e+00
       22  1    3    3    0    0 +9.4294395318e+00 +1.3552942149e+01 -6.0078379574e+00 1.7569595548e+01 0.0000000000e+00 0.0000e+00 -1.0000e+00
<mgrwt>
<rscale>  2 0.12500000E+03</rscale>
<asrwt>0</asrwt>
<pdfrwt beam="1">  1       21 0.38474487E-01 0.12500000E+03</pdfrwt>
<pdfrwt beam="2">  1       21 0.21956817E-02 0.12500000E+03</pdfrwt>
<totfact> 0.66703764E+06</totfact>
</mgrwt>
</event>
<event>
 6      0 +9.8758382e+01 1.25000000e+02 7.54677100e-03 1.12640300e-01
       21 -1    0    0  502  501 +0.0000000000e+00 +0.0000000000e+00 +1.8622613484e+01 1.8622613484e+01 0.0000000000e+00 0.0000e+00 1.0000e+00
       21 -1    0    0  501  502 -0.0000000000e+00 -0.0000000000e+00 -2.0975842104e+02 2.0975842104e+02 0.0000000000e+00 0.0000e+00 1.0000e+00
       25  2    1    2    0    0 +0.0000000000e+00 +0.0000000000e+00 -1.9113580755e+02 2.2838103452e+02 1.2500000000e+02 0.0000e+00 0.0000e+00
      -15  1    3    3    0    0 -3.2359183837e+00 +3.4803171283e+01 -2.9005759034e+01 4.5455733251e+01 1.7770000000e+00 0.0000e+00 -1.0000e+00
       15  1    3    3    0    0 +1.9633384579e+01 +1.8418352494e+01 -3.5483051476e+01 4.4574770551e+01 1.7770000000e+00 0.0000e+00 -1.0000e+00
       22  1    3    3    0    0 -1.6397466195e+01 -5.3221523777e+01 -1.2664699704e+02 1.3835053071e+02 0.0000000000e+00 0.0000e+00 -1.0000e+00
<mgrwt>
<rscale>  2 0.12500000E+03</rscale>
<asrwt>0</asrwt>
<pdfrwt beam="1">  1       21 0.27386197E-02 0.12500000E+03</pdfrwt>
<pdfrwt beam="2">  1       21 0.30846826E-01 0.12500000E+03</pdfrwt>
<totfact> 0.72855052E+06</totfact>
</mgrwt>
</event>
<event>
 6      0 +9.8758382e+01 1.25000000e+02 7.54677100e-03 1.12640300e-01
       21 -1    0    0  502  501 +0.0000000000e+00 +0.0000000000e+00 +4.5052774171e+01 4.5052774171e+01 0.0000000000e+00 0.0000e+00 1.0000e+00
       21 -1    0    0  501  502 -0.0000000000e+00 -0.0000000000e+00 -8.6703872777e+01 8.6703872777e+01 0.0000000000e+00 0.0000e+00 1.0000e+00
       25  2    1    2    0    0 +0.0000000000e+00 +0.0000000000e+00 -4.1651098606e+01 1.3175664695e+02 1.2500000000e+02 0.0000e+00 0.0000e+00
      -15  1    3    3    0    0 +1.5936057355e+01 +8.3602393960e-01 -3.3563236885e+00 1.6403642820e+01 1.7770000000e+00 0.0000e+00 -1.0000e+00
       15  1    3    3    0    0 +1.8156168748e+01 +4.6634918881e+01 -1.3481408574e+01 5.1859119051e+01 1.7770000000e+00 0.0000e+00 -1.0000e+00
       22  1    3    3    0    0 -3.4092226103e+01 -4.7470942821e+01 -2.4813366343e+01 6.3493885078e+01 0.0000000000e+00 0.0000e+00 -1.0000e+00
<mgrwt>
<rscale>  2 0.12500000E+03</rscale>
<asrwt>0</asrwt>
<pdfrwt beam="1">  1       21 0.66254080E-02 0.12500000E+03</pdfrwt>
<pdfrwt beam="2">  1       21 0.12750569E-01 0.12500000E+03</pdfrwt>
<totfact> 0.87779818E+06</totfact>
</mgrwt>
</event>
<event>
 6      0 +9.8758382e+01 1.25000000e+02 7.54677100e-03 1.12640300e-01
       21 -1    0    0  502  501 +0.0000000000e+00 +0.0000000000e+00 +2.5925490904e+01 2.5925490904e+01 0.0000000000e+00 0.0000e+00 1.0000e+00
       21 -1    0    0  501  502 -0.0000000000e+00 -0.0000000000e+00 -1.5067217105e+02 1.5067217105e+02 0.0000000000e+00 0.0000e+00 1.0000e+00
       25  2    1    2    0    0 +0.0000000000e+00 +0.0000000000e+00 -1.2474668015e+02 1.7659766195e+02 1.2500000000e+02 0.0000e+00 0.0000e+00
      -15  1    3    3    0    0 +1.4793952260e+01 -2.1144211071e+01 -1.2399895556e+01 2.8685428777e+01 1.7770000000e+00 0.0000e+00 -1.0000e+00
       15  1    3    3    0    0 -3.0220938194e+01 +5.0358748293e+01 -4.9163347431e+01 7.6612669283e+01 1.7770000000e+00 0.0000e+00 -1.0000e+00
       22  1    3    3    0    0 +1.5426985934e+01 -2.9214537222e+01 -6.3183437172e+01 7.1299563905e+01 0.0000000000e+00 0.0000e+00 -1.0000e+00
<mgrwt>
<rscale>  2 0.12500000E+03</rscale>
<asrwt>0</asrwt>
<pdfrwt beam="1">  1       21 0.38125723E-02 0.12500000E+03</pdfrwt>
<pdfrwt beam="2">  1       21 0.22157672E-01 0.12500000E+03</pdfrwt>
<totfact> 0.80330119E+06</totfact>
</mgrwt>
</event>
<event>
 6      0 +9.8758382e+01 1.25000000e+02 7.54677100e-03 1.12640300e-01
       21 -1    0    0  502  501 +0.0000000000e+00 +0.0000000000e+00 +4.5992021837e+02 4.5992021837e+02 0.0000000000e+00 0.0000e+00 -1.0000e+00
       21 -1    0    0  501  502 -0.0000000000e+00 -0.0000000000e+00 -8.4933208935e+00 8.4933208935e+00 0.0000000000e+00 0.0000e+00 -1.0000e+00
       25  2    1    2    0    0 +0.0000000000e+00 +0.0000000000e+00 +4.5142689747e+02 4.6841353926e+02 1.2500000000e+02 0.0000e+00 0.0000e+00
      -15  1    3    3    0    0 -3.5224606476e+01 +2.6072947488e+01 +1.3280678913e+02 1.3986197647e+02 1.7770000000e+00 0.0000e+00 -1.0000e+00
       15  1    3    3    0    0 +2.9765596375e+01 +8.4769546859e+00 +2.4601012500e+02 2.4795561865e+02 1.7770000000e+00 0.0000e+00 -1.0000e+00
       22  1    3    3    0    0 +5.4590101015e+00 -3.4549902173e+01 +7.2609983293e+01 8.0595944100e+01 0.0000000000e+00 0.0000e+00 -1.0000e+00
<mgrwt>
<rscale>  2 0.12500000E+03</rscale>
<asrwt>0</asrwt>
<pdfrwt beam="1">  1       21 0.67635310E-01 0.12500000E+03</pdfrwt>
<pdfrwt beam="2">  1       21 0.12490181E-02 0.12500000E+03</pdfrwt>
<totfact> 0.47771359E+06</totfact>
</mgrwt>
</event>
<event>
 6      0 +9.8758382e+01 1.25000000e+02 7.54677100e-03 1.12640300e-01
       21 -1    0    0  502  501 +0.0000000000e+00 +0.0000000000e+00 +2.4700466437e+01 2.4700466437e+01 0.0000000000e+00 0.0000e+00 1.0000e+00
       21 -1    0    0  501  502 -0.0000000000e+00 -0.0000000000e+00 -1.5814478686e+02 1.5814478686e+02 0.0000000000e+00 0.0000e+00 1.0000e+00
       25  2    1    2    0    0 +0.0000000000e+00 +0.0000000000e+00 -1.3344432043e+02 1.8284525330e+02 1.2500000000e+02 0.0000e+00 0.0000e+00
      -15  1    3    3    0    0 -2.4664502544e+01 +4.7598261673e+00 -4.8144998118e+01 5.4333159338e+01 1.7770000000e+00 0.0000e+00 -1.0000e+00
       15  1    3    3    0    0 -3.1269997119e+01 +1.2196786870e+01 -4.9949637324e+01 6.0205467588e+01 1.7770000000e+00 0.0000e+00 -1.0000e+00
       22  1    3    3    0    0 +5.5934499662e+01 -1.6956613037e+01 -3.5349684991e+01 6.8306626378e+01 0.0000000000e+00 0.0000e+00 -1.0000e+00
<mgrwt>
<rscale>  2 0.12500000E+03</rscale>
<asrwt>0</asrwt>
<pdfrwt beam="1">  1       21 0.36324215E-02 0.12500000E+03</pdfrwt>
<pdfrwt beam="2">  1       21 0.23256586E-01 0.12500000E+03</pdfrwt>
<totfact> 0.79372875E+06</totfact>
</mgrwt>
</event>
<event>
 6      0 +9.8758382e+01 1.25000000e+02 7.54677100e-03 1.12640300e-01
       21 -1    0    0  502  501 +0.0000000000e+00 +0.0000000000e+00 +2.7515101738e+02 2.7515101738e+02 0.0000000000e+00 0.0000e+00 -1.0000e+00
       21 -1    0    0  501  502 -0.0000000000e+00 -0.0000000000e+00 -1.4196749251e+01 1.4196749251e+01 0.0000000000e+00 0.0000e+00 -1.0000e+00
       25  2    1    2    0    0 +0.0000000000e+00 +0.0000000000e+00 +2.6095426813e+02 2.8934776663e+02 1.2500000000e+02 0.0000e+00 0.0000e+00
      -15  1    3    3    0    0 +2.8032360417e+01 +1.6337813179e+01 +9.0628395640e+01 9.6277729487e+01 1.7770000000e+00 0.0000e+00 -1.0000e+00
       15  1    3    3    0    0 -4.8048199606e+01 +1.2482360887e+01 +1.3234939156e+02 1.4136462780e+02 1.7770000000e+00 0.0000e+00 -1.0000e+00
       22  1    3    3    0    0 +2.0015839189e+01 -2.8820174067e+01 +3.7976480948e+01 5.1705409358e+01 0.0000000000e+00 0.0000e+00 -1.0000e+00
<mgrwt>
<rscale>  2 0.12500000E+03</rscale>
<asrwt>0</asrwt>
<pdfrwt beam="1">  1       21 0.40463381E-01 0.12500000E+03</pdfrwt>
<pdfrwt beam="2">  1       21 0.20877574E-02 0.12500000E+03</pdfrwt>
<totfact> 0.65186187E+06</totfact>
</mgrwt>
</event>
<event>
 6      0 +9.8758382e+01 1.25000000e+02 7.54677100e-03 1.12640300e-01
       21 -1    0    0  502  501 +0.0000000000e+00 +0.0000000000e+00 +6.7091931537e+01 6.7091931537e+01 0.0000000000e+00 0.0000e+00 -1.0000e+00
       21 -1    0    0  501  502 -0.0000000000e+00 -0.0000000000e+00 -5.8222351191e+01 5.8222351191e+01 0.0000000000e+00 0.0000e+00 -1.0000e+00
       25  2    1    2    0    0 +0.0000000000e+00 +0.0000000000e+00 +8.8695803463e+00 1.2531428273e+02 1.2500000000e+02 0.0000e+00 0.0000e+00
      -15  1    3    3    0    0 +2.7922002815e+00 +1.7626286167e+01 +1.7246478850e+01 2.4881340562e+01 1.7770000000e+00 0.0000e+00 -1.0000e+00
       15  1    3    3    0    0 -5.6206280527e+00 +2.7676195820e+01 -3.7143542193e+01 4.6694365082e+01 1.7770000000e+00 0.0000e+00 -1.0000e+00
       22  1    3    3    0    0 +2.8284277713e+00 -4.5302481987e+01 +2.8766643689e+01 5.3738577083e+01 0.0000000000e+00 0.0000e+00 -1.0000e+00
<mgrwt>
<rscale>  2 0.12500000E+03</rscale>
<asrwt>0</asrwt>
<pdfrwt beam="1">  1       21 0.98664605E-02 0.12500000E+03</pdfrwt>
<pdfrwt beam="2">  1       21 0.85621105E-02 0.12500000E+03</pdfrwt>
<totfact> 0.88938552E+06</totfact>
</mgrwt>
</event>
<event>
 6      0 +9.8758382e+01 1.25000000e+02 7.54677100e-03 1.12640300e-01
       21 -1    0    0  502  501 +0.0000000000e+00 +0.0000000000e+00 +5.8124160284e+01 5.8124160284e+01 0.0000000000e+00 0.0000e+00 -1.0000e+00
       21 -1    0    0  501  502 -0.0000000000e+00 -0.0000000000e+00 -6.7205271971e+01 6.7205271971e+01 0.0000000000e+00 0.0000e+00 -1.0000e+00
       25  2    1    2    0    0 +0.0000000000e+00 +0.0000000000e+00 -9.0811116869e+00 1.2532943226e+02 1.2500000000e+02 0.0000e+00 0.0000e+00
      -15  1    3    3    0    0 +1.4985583452e+01 +1.3744847506e+01 -3.1258993552e+01 3.7333241907e+01 1.7770000000e+00 0.0000e+00 -1.0000e+00
       15  1    3    3    0    0 -8.7205486197e+00 +1.3053769100e+01 -2.7206417619e+01 3.1461019446e+01 1.7770000000e+00 0.0000e+00 -1.0000e+00
       22  1    3    3    0    0 -6.2650348327e+00 -2.6798616606e+01 +4.9384299484e+01 5.6535170903e+01 0.0000000000e+00 0.0000e+00 -1.0000e+00
<mgrwt>
<rscale>  2 0.12500000E+03</rscale>
<asrwt>0</asrwt>
<pdfrwt beam="1">  1       21 0.85476707E-02 0.12500000E+03</pdfrwt>
<pdfrwt beam="2">  1       21 0.98831282E-02 0.12500000E+03</pdfrwt>
<totfact> 0.88935649E+06</totfact>
</mgrwt>
</event>
<event>
 6      0 +9.8758382e+01 1.25000000e+02 7.54677100e-03 1.12640300e-01
       21 -1    0    0  502  501 +0.0000000000e+00 +0.0000000000e+00 +1.4682094658e+01 1.4682094658e+01 0.0000000000e+00 0.0000e+00 1.0000e+00
       21 -1    0    0  501  502 -0.0000000000e+00 -0.0000000000e+00 -2.6605536137e+02 2.6605536137e+02 0.0000000000e+00 0.0000e+00 1.0000e+00
       25  2    1    2    0    0 +0.0000000000e+00 +0.0000000000e+00 -2.5137326671e+02 2.8073745603e+02 1.2500000000e+02 0.0000e+00 0.0000e+00
      -15  1    3    3    0    0 +4.5485147138e+00 -3.0883880618e+01 -3.4675584847e+01 4.6691080322e+01 1.7770000000e+00 0.0000e+00 -1.0000e+00
       15  1    3    3    0    0 +9.3731142722e+00 -5.7724819491e+00 -1.7998853922e+02 1.8033360419e+02 1.7770000000e+00 0.0000e+00 -1.0000e+00
       22  1    3    3    0    0 -1.3921628986e+01 +3.6656362567e+01 -3.6709142627e+01 5.3712771505e+01 0.0000000000e+00 0.0000e+00 -1.0000e+00
<mgrwt>
<rscale>  2 0.12500000E+03</rscale>
<asrwt>0</asrwt>
<pdfrwt beam="1">  1       21 0.21591316E-02 0.12500000E+03</pdfrwt>
<pdfrwt beam="2">  1       21 0.39125787E-01 0.12500000E+03</pdfrwt>
<totfact> 0.66203470E+06</totfact>
</mgrwt>
</event>
<event>
 6      0 +9.8758382e+01 1.25000000e+02 7.54677100e-03 1.12640300e-01
       21 -1    0    0  502  501 +0.0000000000e+00 +0.0000000000e+00 +1.4619165583e+02 1.4619165583e+02 0.0000000000e+00 0.0000e+00 1.0000e+00
       21 -1    0    0  501  502 -0.0000000000e+00 -0.0000000000e+00 -2.6720061263e+01 2.6720061263e+01 0.0000000000e+00 0.0000e+00 1.0000e+00
       25  2    1    2    0    0 +0.0000000000e+00 +0.0000000000e+00 +1.1947159457e+02 1.7291171710e+02 1.2500000000e+02 0.0000e+00 0.0000e+00
      -15  1    3    3    0    0 +4.9127682183e+00 +6.7903123450e+00 -3.2439617246e-01 8.5735987304e+00 1.7770000000e+00 0.0000e+00 -1.0000e+00
       15  1    3    3    0    0 +1.4240153484e+01 -2.6823687642e+01 -9.6836911567e+00 3.1925284547e+01 1.7770000000e+00 0.0000e+00 -1.0000e+00
       22  1    3    3    0    0 -1.9152921702e+01 +2.0033375297e+01 +1.2947968189e+02 1.3241283382e+02 0.0000000000e+00 0.0000e+00 -1.0000e+00
<mgrwt>
<rscale>  2 0.12500000E+03</rscale>
<asrwt>0</asrwt>
<pdfrwt beam="1">  1       21 0.21498773E-01 0.12500000E+03</pdfrwt>
<pdfrwt beam="2">  1       21 0.39294208E-02 0.12500000E+03</pdfrwt>
<totfact> 0.80904650E+06</totfact>
</mgrwt>
</event>
<event>
 6      0 +9.8758382e+01 1.25000000e+02 7.54677100e-03 1.12640300e-01
       21 -1    0    0  502  501 +0.0000000000e+00 +0.0000000000e+00 +3.6992884158e+01 3.6992884158e+01 0.0000000000e+00 0.0000e+00 -1.0000e+00
       21 -1    0    0  501  502 -0.0000000000e+00 -0.0000000000e+00 -1.0559463229e+02 1.0559463229e+02 0.0000000000e+00 0.0000e+00 -1.0000e+00
       25  2    1    2    0    0 +0.0000000000e+00 +0.0000000000e+00 -6.8601748131e+01 1.4258751645e+02 1.2500000000e+02 0.0000e+00 0.0000e+00
      -15  1    3    3    0    0 +7.7216892376e+00 +2.3622256710e+00 -2.1086369689e+01 2.2649443932e+01 1.7770000000e+00 0.0000e+00 -1.0000e+00
       15  1    3    3    0    0 -1.3757875694e+01 -2.6083361073e+01 -7.6496779630e+01 8.2003267564e+01 1.7770000000e+00 0.0000e+00 -1.0000e+00
       22  1    3    3    0    0 +6.0361864569e+00 +2.3721135402e+01 +2.8981401188e+01 3.7934804950e+01 0.0000000000e+00 0.0000e+00 -1.0000e+00
<mgrwt>
<rscale>  2 0.12500000E+03</rscale>
<asrwt>0</asrwt>
<pdfrwt beam="1">  1       21 0.54401302E-02 0.12500000E+03</pdfrwt>
<pdfrwt beam="2">  1       21 0.15528622E-01 0.12500000E+03</pdfrwt>
<totfact> 0.85891855E+06</totfact>
</mgrwt>
</event>
<event>
 6      0 +9.8758382e+01 1.25000000e+02 7.54677100e-03 1.12640300e-01
       21 -1    0    0  502  501 +0.0000000000e+00 +0.0000000000e+00 +1.1451006989e+01 1.1451006989e+01 0.0000000000e+00 0.0000e+00 1.0000e+00
       21 -1    0    0  501  502 -0.0000000000e+00 -0.0000000000e+00 -3.4112720426e+02 3.4112720426e+02 0.0000000000e+00 0.0000e+00 1.0000e+00
       25  2    1    2    0    0 +0.0000000000e+00 +0.0000000000e+00 -3.2967619727e+02 3.5257821125e+02 1.2500000000e+02 0.0000e+00 0.0000e+00
      -15  1    3    3    0    0 -1.9686250046e+01 +3.7174001755e+01 -9.0402871066e+01 9.9726083215e+01 1.7770000000e+00 0.0000e+00 -1.0000e+00
       15  1    3    3    0    0 -2.2065270107e+01 +1.0222374608e+00 -4.0327861052e+01 4.6015380258e+01 1.7770000000e+00 0.0000e+00 -1.0000e+00
       22  1    3    3    0    0 +4.1751520153e+01 -3.8196239216e+01 -1.9894546513e+02 2.0683674776e+02 0.0000000000e+00 0.0000e+00 -1.0000e+00
<mgrwt>
<rscale>  2 0.12500000E+03</rscale>
<asrwt>0</asrwt>
<pdfrwt beam="1">  1       21 0.16839716E-02 0.12500000E+03</pdfrwt>
<pdfrwt beam="2">  1       21 0.50165764E-01 0.12500000E+03</pdfrwt>
<totfact> 0.58265524E+06</totfact>
</mgrwt>
</event>
<event>
 6      0 +9.8758382e+01 1.25000000e+02 7.54677100e-03 1.12640300e-01
       21 -1    0    0  502  501 +0.0000000000e+00 +0.0000000000e+00 +1.8852843178e+02 1.8852843178e+02 0.0000000000e+00 0.0000e+00 -1.0000e+00
       21 -1    0    0  501  502 -0.0000000000e+00 -0.0000000000e+00 -2.0719686485e+01 2.0719686485e+01 0.0000000000e+00 0.0000e+00 -1.0000e+00
       25  2    1    2    0    0 +0.0000000000e+00 +0.0000000000e+00 +1.6780874529e+02 2.0924811826e+02 1.2500000000e+02 0.0000e+00 0.0000e+00
      -15  1    3    3    0    0 +1.2187671216e+00 +1.4546309563e+00 +3.4357111414e+01 3.4455335990e+01 1.7770000000e+00 0.0000e+00 -1.0000e+00
       15  1    3    3    0    0 +3.9957118907e+01 -2.8443945394e+01 +1.0959843474e+02 1.2008581934e+02 1.7770000000e+00 0.0000e+00 -1.0000e+00
       22  1    3    3    0    0 -4.1175886029e+01 +2.6989314437e+01 +2.3853199143e+01 5.4706962933e+01 0.0000000000e+00 0.0000e+00 -1.0000e+00
<mgrwt>
<rscale>  2 0.12500000E+03</rscale>
<asrwt>0</asrwt>
<pdfrwt beam="1">  1       21 0.27724768E-01 0.12500000E+03</pdfrwt>
<pdfrwt beam="2">  1       21 0.30470128E-02 0.12500000E+03</pdfrwt>
<totfact> 0.75490564E+06</totfact>
</mgrwt>
</event>
<event>
 6      0 +9.8758382e+01 1.25000000e+02 7.54677100e-03 1.12640300e-01
       21 -1    0    0  502  501 +0.0000000000e+00 +0.0000000000e+00 +1.0006160921e+01 1.0006160921e+01 0.0000000000e+00 0.0000e+00 1.0000e+00
       21 -1    0    0  501  502 -0.0000000000e+00 -0.0000000000e+00 -3.9038448719e+02 3.9038448719e+02 0.0000000000e+00 0.0000e+00 1.0000e+00
       25  2    1    2    0    0 +0.0000000000e+00 +0.0000000000e+00 -3.8037832627e+02 4.0039064811e+02 1.2500000000e+02 0.0000e+00 0.0000e+00
      -15  1    3    3    0    0 -2.3683318771e+01 +2.0779351183e+01 -2.1289782069e+02 2.1522388531e+02 1.7770000000e+00 0.0000e+00 -1.0000e+00
       15  1    3    3    0    0 +2.9166980361e+01 +1.5216538749e+01 -1.2474992121e+02 1.2902695985e+02 1.7770000000e+00 0.0000e+00 -1.0000e+00
       22  1    3    3    0    0 -5.4836615903e+00 -3.5995889932e+01 -4.2730584386e+01 5.6139802978e+01 0.0000000000e+00 0.0000e+00 -1.0000e+00
<mgrwt>
<rscale>  2 0.12500000E+03</rscale>
<asrwt>0</asrwt>
<pdfrwt beam="1">  1       21 0.14714945E-02 0.12500000E+03</pdfrwt>
<pdfrwt beam="2">  1       21 0.57409474E-01 0.12500000E+03</pdfrwt>
<totfact> 0.53619851E+06</totfact>
</mgrwt>
</event>
<event>
 6      0 +9.8758382e+01 1.25000000e+02 7.54677100e-03 1.12640300e-01
       21 -1    0    0  502  501 +0.0000000000e+00 +0.0000000000e+00 +2.7554026052e+02 2.7554026052e+02 0.0000000000e+00 0.0000e+00 -1.0000e+00
       21 -1    0    0  501  502 -0.0000000000e+00 -0.0000000000e+00 -1.4176694152e+01 1.4176694152e+01 0.0000000000e+00 0.0000e+00 -1.0000e+00
       25  2    1    2    0    0 +0.0000000000e+00 +0.0000000000e+00 +2.6136356637e+02 2.8971695467e+02 1.2500000000e+02 0.0000e+00 0.0000e+00
      -15  1    3    3    0    0 -9.8944776657e+00 -3.6801038645e+01 +1.5206029056e+02 1.5677278727e+02 1.7770000000e+00 0.0000e+00 -1.0000e+00
       15  1    3    3    0    0 +9.8796860669e+00 -1.2006431008e+01 +2.9489922989e+00 1.5925352962e+01 1.7770000000e+00 0.0000e+00 -1.0000e+00
       22  1    3    3    0    0 +1.4791598785e-02 +4.8807469653e+01 +1.0635428353e+02 1.1701881446e+02 0.0000000000e+00 0.0000e+00 -1.0000e+00
<mgrwt>
<rscale>  2 0.12500000E+03</rscale>
<asrwt>0</asrwt>
<pdfrwt beam="1">  1       21 0.40520623E-01 0.12500000E+03</pdfrwt>
<pdfrwt beam="2">  1       21 0.20848081E-02 0.12500000E+03</pdfrwt>
<totfact> 0.65142941E+06</totfact>
</mgrwt>
</event>
<event>
 6      0 +9.8758382e+01 1.25000000e+02 7.54677100e-03 1.12640300e-01
       21 -1    0    0  502  501 +0.0000000000e+00 +0.0000000000e+00 +3.2867200813e+01 3.2867200813e+01 0.0000000000e+00 0.0000e+00 -1.0000e+00
       21 -1    0    0  501  502 -0.0000000000e+00 -0.0000000000e+00 -1.1884948835e+02 1.1884948835e+02 0.0000000000e+00 0.0000e+00 -1.0000e+00
       25  2    1    2    0    0 +0.0000000000e+00 +0.0000000000e+00 -8.5982287535e+01 1.5171668916e+02 1.2500000000e+02 0.0000e+00 0.0000e+00
      -15  1    3    3    0    0 -5.6588799876e+01 -7.0854056399e+00 -5.4111298873e+01 7.8636414206e+01 1.7770000000e+00 0.0000e+00 -1.0000e+00
       15  1    3    3    0    0 +6.4771424492e+00 +8.0483745928e+00 +4.2377792461e+00 1.1306909827e+01 1.7770000000e+00 0.0000e+00 -1.0000e+00
       22  1    3    3    0    0 +5.0111657427e+01 -9.6296895295e-01 -3.6108767908e+01 6.1773365127e+01 0.0000000000e+00 0.0000e+00 -1.0000e+00
<mgrwt>
<rscale>  2 0.12500000E+03</rscale>
<asrwt>0</asrwt>
<pdfrwt beam="1">  1       21 0.48334120E-02 0.12500000E+03</pdfrwt>
<pdfrwt beam="2">  1       21 0.17477866E-01 0.12500000E+03</pdfrwt>
<totfact> 0.84338572E+06</totfact>
</mgrwt>
</event>
<event>
 6      0 +9.8758382e+01 1.25000000e+02 7.54677100e-03 1.12640300e-01
       21 -1    0    0  502  501 +0.0000000000e+00 +0.0000000000e+00 +1.3626825401e+03 1.3626825401e+03 0.0000000000e+00 0.0000e+00 -1.0000e+00
       21 -1    0    0  501  502 -0.0000000000e+00 -0.0000000000e+00 -2.8665884276e+00 2.8665884276e+00 0.0000000000e+00 0.0000e+00 -1.0000e+00
       25  2    1    2    0    0 +0.0000000000e+00 +0.0000000000e+00 +1.3598159517e+03 1.3655491286e+03 1.2500000000e+02 0.0000e+00 0.0000e+00
      -15  1    3    3    0    0 +7.2267777653e+00 -1.4300420369e+01 +4.9989434183e+02 5.0015421528e+02 1.7770000000e+00 0.0000e+00 -1.0000e+00
       15  1    3    3    0    0 +4.2053549416e+00 -2.1080719953e+01 +4.8013843976e+01 5.2636191981e+01 1.7770000000e+00 0.0000e+00 -1.0000e+00
       22  1    3    3    0    0 -1.1432132707e+01 +3.5381140322e+01 +8.1190776056e+02 8.1275871598e+02 0.0000000000e+00 0.0000e+00 -1.0000e+00
<mgrwt>
<rscale>  2 0.12500000E+03</rscale>
<asrwt>0</asrwt>
<pdfrwt beam="1">  1       21 0.20039404E+00 0.12500000E+03</pdfrwt>
<pdfrwt beam="2">  1       21 0.42155807E-03 0.12500000E+03</pdfrwt>
<totfact> 0.12760765E+06</totfact>
</mgrwt>
</event>
<event>
 6      0 +9.8758382e+01 1.25000000e+02 7.54677100e-03 1.12640300e-01
       21 -1    0    0  502  501 +0.0000000000e+00 +0.0000000000e+00 +7.8175923861e+01 7.8175923861e+01 0.0000000000e+00 0.0000e+00 -1.0000e+00
       21 -1    0    0  501  502 -0.0000000000e+00 -0.0000000000e+00 -4.9967429959e+01 4.9967429959e+01 0.0000000000e+00 0.0000e+00 -1.0000e+00
       25  2    1    2    0    0 +0.0000000000e+00 +0.0000000000e+00 +2.8208493901e+01 1.2814335382e+02 1.2500000000e+02 0.0000e+00 0.0000e+00
      -15  1    3    3    0    0 +3.0177608514e+01 -3.4019719461e+00 +3.7598804444e+01 4.8364132303e+01 1.7770000000e+00 0.0000e+00 -1.0000e+00
       15  1    3    3    0    0 -1.4532220764e+01 -3.4282544964e+01 +2.2573592242e+00 3.7346107283e+01 1.7770000000e+00 0.0000e+00 -1.0000e+00
       22  1    3    3    0    0 -1.5645387750e+01 +3.7684516910e+01 -1.1647669768e+01 4.2433114234e+01 0.0000000000e+00 0.0000e+00 -1.0000e+00
<mgrwt>
<rscale>  2 0.12500000E+03</rscale>
<asrwt>0</asrwt>
<pdfrwt beam="1">  1       21 0.11496459E-01 0.12500000E+03</pdfrwt>
<pdfrwt beam="2">  1       21 0.73481515E-02 0.12500000E+03</pdfrwt>
<totfact> 0.88432349E+06</totfact>
</mgrwt>
</event>
<event>
 6      0 +9.8758382e+01 1.25000000e+02 7.54677100e-03 1.12640300e-01
       21 -1    0    0  502  501 +0.0000000000e+00 +0.0000000000e+00 +3.1792056672e+00 3.1792056672e+00 0.0000000000e+00 0.0000e+00 -1.0000e+00
       21 -1    0    0  501  502 -0.0000000000e+00 -0.0000000000e+00 -1.2286874172e+03 1.2286874172e+03 0.0000000000e+00 0.0000e+00 -1.0000e+00
       25  2    1    2    0    0 +0.0000000000e+00 +0.0000000000e+00 -1.2255082115e+03 1.2318666229e+03 1.2500000000e+02 0.0000e+00 0.0000e+00
      -15  1    3    3    0    0 -3.0761121119e+01 +2.2822333798e+01 -8.0771320934e+02 8.0862283654e+02 1.7770000000e+00 0.0000e+00 -1.0000e+00
       15  1    3    3    0    0 +2.2978906274e+01 -1.5441764730e+01 -4.0728003783e+02 4.0822379301e+02 1.7770000000e+00 0.0000e+00 -1.0000e+00
       22  1    3    3    0    0 +7.7822148452e+00 -7.3805690671e+00 -1.0514957987e+01 1.5019986986e+01 0.0000000000e+00 0.0000e+00 -1.0000e+00
<mgrwt>
<rscale>  2 0.12500000E+03</rscale>
<asrwt>0</asrwt>
<pdfrwt beam="1">  1       21 0.46752963E-03 0.12500000E+03</pdfrwt>
<pdfrwt beam="2">  1       21 0.18068956E+00 0.12500000E+03</pdfrwt>
<totfact> 0.15336497E+06</totfact>
</mgrwt>
</event>
<event>
 6      0 +9.8758382e+01 1.25000000e+02 7.54677100e-03 1.12640300e-01
       21 -1    0    0  502  501 +0.0000000000e+00 +0.0000000000e+00 +5.5686242549e+01 5.5686242549e+01 0.0000000000e+00 0.0000e+00 -1.0000e+00
       21 -1    0    0  501  502 -0.0000000000e+00 -0.0000000000e+00 -7.0147487444e+01 7.0147487444e+01 0.0000000000e+00 0.0000e+00 -1.0000e+00
       25  2    1    2    0    0 +0.0000000000e+00 +0.0000000000e+00 -1.4461244895e+01 1.2583372999e+02 1.2500000000e+02 0.0000e+00 0.0000e+00
      -15  1    3    3    0    0 +9.9791726439e+00 +3.1981779065e+00 -3.9404622171e+01 4.0812917147e+01 1.7770000000e+00 0.0000e+00 -1.0000e+00
       15  1    3    3    0    0 +1.1133615081e+01 +2.7324086837e+01 +3.5730348349e+01 4.6372175153e+01 1.7770000000e+00 0.0000e+00 -1.0000e+00
       22  1    3    3    0    0 -2.1112787725e+01 -3.0522264744e+01 -1.0786971073e+01 3.8648637694e+01 0.0000000000e+00 0.0000e+00 -1.0000e+00
<mgrwt>
<rscale>  2 0.12500000E+03</rscale>
<asrwt>0</asrwt>
<pdfrwt beam="1">  1       21 0.81891533E-02 0.12500000E+03</pdfrwt>
<pdfrwt beam="2">  1       21 0.10315807E-01 0.12500000E+03</pdfrwt>
<totfact> 0.88841946E+06</totfact>
</mgrwt>
</event>
<event>
 6      0 +9.8758382e+01 1.25000000e+02 7.54677100e-03 1.12640300e-01
       21 -1    0    0  502  501 +0.0000000000e+00 +0.0000000000e+00 +8.0602888282e+01 8.0602888282e+01 0.0000000000e+00 0.0000e+00 1.0000e+00
       21 -1    0    0  501  502 -0.0000000000e+00 -0.0000000000e+00 -4.8462903542e+01 4.8462903542e+01 0.0000000000e+00 0.0000e+00 1.0000e+00
       25  2    1    2    0    0 +0.0000000000e+00 +0.0000000000e+00 +3.2139984741e+01 1.2906579182e+02 1.2500000000e+02 0.0000e+00 0.0000e+00
      -15  1    3    3    0    0 -1.3051906304e+01 +1.3347561230e+01 -8.4729002607e+00 2.0578080979e+01 1.7770000000e+00 0.0000e+00 -1.0000e+00
       15  1    3    3    0    0 -2.0109612906e+01 +4.7921259195e+00 -2.5169300152e+01 3.2619202952e+01 1.7770000000e+00 0.0000e+00 -1.0000e+00
       22  1    3    3    0    0 +3.3161519210e+01 -1.8139687150e+01 +6.5782185155e+01 7.5868507894e+01 0.0000000000e+00 0.0000e+00 -1.0000e+00
<mgrwt>
<rscale>  2 0.12500000E+03</rscale>
<asrwt>0</asrwt>
<pdfrwt beam="1">  1       21 0.11853366E-01 0.12500000E+03</pdfrwt>
<pdfrwt beam="2">  1       21 0.71268976E-02 0.12500000E+03</pdfrwt>
<totfact> 0.88267472E+06</totfact>
</mgrwt>
</event>
<event>
 6      0 +9.8758382e+01 1.25000000e+02 7.54677100e-03 1.12640300e-01
       21 -1    0    0  502  501 +0.0000000000e+00 +0.0000000000e+00 +3.9159367136e+01 3.9159367136e+01 0.0000000000e+00 0.0000e+00 1.0000e+00
       21 -1    0    0  501  502 -0.0000000000e+00 -0.0000000000e+00 -9.9752633551e+01 9.9752633551e+01 0.0000000000e+00 0.0000e+00 1.0000e+00
       25  2    1    2    0    0 +0.0000000000e+00 +0.0000000000e+00 -6.0593266415e+01 1.3891200069e+02 1.2500000000e+02 0.0000e+00 0.0000e+00
      -15  1    3    3    0    0 +6.6464688849e+00 +2.7072277835e+01 -1.1844509870e+01 3.0340301892e+01 1.7770000000e+00 0.0000e+00 -1.0000e+00
       15  1    3    3    0    0 +3.5620112871e+01 +1.3355475075e+01 -1.4216291100e+01 4.0649991600e+01 1.7770000000e+00 0.0000e+00 -1.0000e+00
       22  1    3    3    0    0 -4.2266581756e+01 -4.0427752910e+01 -3.4532465444e+01 6.7921707196e+01 0.0000000000e+00 0.0000e+00 -1.0000e+00
<mgrwt>
<rscale>  2 0.12500000E+03</rscale>
<asrwt>0</asrwt>
<pdfrwt beam="1">  1       21 0.57587305E-02 0.12500000E+03</pdfrwt>
<pdfrwt beam="2">  1       21 0.14669505E-01 0.12500000E+03</pdfrwt>
<totfact> 0.86528189E+06</totfact>
</mgrwt>
</event>
<event>
 6      0 +9.8758382e+01 1.25000000e+02 7.54677100e-03 1.12640300e-01
       21 -1    0    0  502  501 +0.0000000000e+00 +0.0000000000e+00 +9.1574120270e+01 9.1574120270e+01 0.0000000000e+00 0.0000e+00 1.0000e+00
       21 -1    0    0  501  502 -0.0000000000e+00 -0.0000000000e+00 -4.2656702445e+01 4.2656702445e+01 0.0000000000e+00 0.0000e+00 1.0000e+00
       25  2    1    2    0    0 +0.0000000000e+00 +0.0000000000e+00 +4.8917417825e+01 1.3423082271e+02 1.2500000000e+02 0.0000e+00 0.0000e+00
      -15  1    3    3    0    0 +4.3217571763e+00 +1.6709618163e+01 +2.0819656170e+01 2.7101747845e+01 1.7770000000e+00 0.0000e+00 -1.0000e+00
       15  1    3    3    0    0 +5.6332943478e+00 +3.3355509490e+01 +4.2255061580e+01 5.4156919933e+01 1.7770000000e+00 0.0000e+00 -1.0000e+00
       22  1    3    3    0    0 -9.9550515240e+00 -5.0065127652e+01 -1.4157299922e+01 5.2972154938e+01 0.0000000000e+00 0.0000e+00 -1.0000e+00
<mgrwt>
<rscale>  2 0.12500000E+03</rscale>
<asrwt>0</asrwt>
<pdfrwt beam="1">  1       21 0.13466782E-01 0.12500000E+03</pdfrwt>
<pdfrwt beam="2">  1       21 0.62730445E-02 0.12500000E+03</pdfrwt>
<totfact> 0.87340754E+06</totfact>
</mgrwt>
</event>
<event>
 6      0 +9.8758382e+01 1.25000000e+02 7.54677100e-03 1.12640300e-01
       21 -1    0    0  502  501 +0.0000000000e+00 +0.0000000000e+00 +4.8476875514e+01 4.8476875514e+01 0.0000000000e+00 0.0000e+00 -1.0000e+00
       21 -1    0    0  501  502 -0.0000000000e+00 -0.0000000000e+00 -8.0579656972e+01 8.0579656972e+01 0.0000000000e+00 0.0000e+00 -1.0000e+00
       25  2    1    2    0    0 +0.0000000000e+00 +0.0000000000e+00 -3.2102781457e+01 1.2905653249e+02 1.2500000000e+02 0.0000e+00 0.0000e+00
      -15  1    3    3    0    0 -5.7365535282e+00 +1.4419903011e+01 -4.9815027658e+01 5.2206669678e+01 1.7770000000e+00 0.0000e+00 -1.0000e+00
       15  1    3    3    0    0 -1.5116306543e+01 -3.1160697343e+01 -1.2166995114e+01 3.6751670459e+01 1.7770000000e+00 0.0000e+00 -1.0000e+00
       22  1    3    3    0    0 +2.0852860071e+01 +1.6740794332e+01 +2.9879241316e+01 4.0098192350e+01 0.0000000000e+00 0.0000e+00 -1.0000e+00
<mgrwt>
<rscale>  2 0.12500000E+03</rscale>
<asrwt>0</asrwt>
<pdfrwt beam="1">  1       21 0.71289523E-02 0.12500000E+03</pdfrwt>
<pdfrwt beam="2">  1       21 0.11849949E-01 0.12500000E+03</pdfrwt>
<totfact> 0.88269141E+06</totfact>
</mgrwt>
</event>
<event>
 6      0 +9.8758382e+01 1.25000000e+02 7.54677100e-03 1.12640300e-01
       21 -1    0    0  502  501 +0.0000000000e+00 +0.0000000000e+00 +2.6105392086e+01 2.6105392086e+01 0.0000000000e+00 0.0000e+00 -1.0000e+00
       21 -1    0    0  501  502 -0.0000000000e+00 -0.0000000000e+00 -1.4963383760e+02 1.4963383760e+02 0.0000000000e+00 0.0000e+00 -1.0000e+00
       25  2    1    2    0    0 +0.0000000000e+00 +0.0000000000e+00 -1.2352844552e+02 1.7573922969e+02 1.2500000000e+02 0.0000e+00 0.0000e+00
      -15  1    3    3    0    0 +1.1410166342e+01 +5.0278599714e+00 -5.5332527445e+01 5.6747842199e+01 1.7770000000e+00 0.0000e+00 -1.0000e+00
       15  1    3    3    0    0 -5.3676217180e+01 -8.1352273830e+00 -3.0633645919e+01 6.2361015119e+01 1.7770000000e+00 0.0000e+00 -1.0000e+00
       22  1    3    3    0    0 +4.2266050839e+01 +3.1073674116e+00 -3.7562272159e+01 5.6630372376e+01 0.0000000000e+00 0.0000e+00 -1.0000e+00
<mgrwt>
<rscale>  2 0.12500000E+03</rscale>
<asrwt>0</asrwt>
<pdfrwt beam="1">  1       21 0.38390284E-02 0.12500000E+03</pdfrwt>
<pdfrwt beam="2">  1       21 0.22004975E-01 0.12500000E+03</pdfrwt>
<totfact> 0.80463236E+06</totfact>
</mgrwt>
</event>
<event>
 6      0 +9.8758382e+01 1.25000000e+02 7.54677100e-03 1.12640300e-01
       21 -1    0    0  502  501 +0.0000000000e+00 +0.0000000000e+00 +2.9023524566e+02 2.9023524566e+02 0.0000000000e+00 0.0000e+00 -1.0000e+00
       21 -1    0    0  501  502 -0.0000000000e+00 -0.0000000000e+00 -1.3458909827e+01 1.3458909827e+01 0.0000000000e+00 0.0000e+00 -1.0000e+00
       25  2    1    2    0    0 +0.0000000000e+00 +0.0000000000e+00 +2.7677633584e+02 3.0369415549e+02 1.2500000000e+02 0.0000e+00 0.0000e+00
      -15  1    3    3    0    0 +1.9460740500e+01 +5.0045852098e+00 +4.5970207550e+01 5.0201434293e+01 1.7770000000e+00 0.0000e+00 -1.0000e+00
       15  1    3    3    0    0 +2.9554091806e+01 +1.7087060348e+01 +1.6506188964e+02 1.6856451914e+02 1.7770000000e+00 0.0000e+00 -1.0000e+00
       22  1    3    3    0    0 -4.9014832305e+01 -2.2091645558e+01 +6.5744238673e+01 8.4928202077e+01 0.0000000000e+00 0.0000e+00 -1.0000e+00
<mgrwt>
<rscale>  2 0.12500000E+03</rscale>
<asrwt>0</asrwt>
<pdfrwt beam="1">  1       21 0.42681650E-01 0.12500000E+03</pdfrwt>
<pdfrwt beam="2">  1       21 0.19792516E-02 0.12500000E+03</pdfrwt>
<totfact> 0.63527510E+06</totfact>
</mgrwt>
</event>
<event>
 6      0 +9.8758382e+01 1.25000000e+02 7.54677100e-03 1.12640300e-01
       21 -1    0    0  502  501 +0.0000000000e+00 +0.0000000000e+00 +1.1968668279e+02 1.1968668279e+02 0.0000000000e+00 0.0000e+00 1.0000e+00
       21 -1    0    0  501  502 -0.0000000000e+00 -0.0000000000e+00 -3.2637298561e+01 3.2637298561e+01 0.0000000000e+00 0.0000e+00 1.0000e+00
       25  2    1    2    0    0 +0.0000000000e+00 +0.0000000000e+00 +8.7049384229e+01 1.5232398135e+02 1.2500000000e+02 0.0000e+00 0.0000e+00
      -15  1    3    3    0    0 +1.6830478118e+01 -5.0367790236e+00 -6.3574396678e+00 1.8767229544e+01 1.7770000000e+00 0.0000e+00 -1.0000e+00
       15  1    3    3    0    0 +1.2926069477e+01 +4.3832201730e+01 +5.3972420387e+01 7.0742667974e+01 1.7770000000e+00 0.0000e+00 -1.0000e+00
       22  1    3    3    0    0 -2.9756547595e+01 -3.8795422706e+01 +3.9434403511e+01 6.2814083834e+01 0.0000000000e+00 0.0000e+00 -1.0000e+00
<mgrwt>
<rscale>  2 0.12500000E+03</rscale>
<asrwt>0</asrwt>
<pdfrwt beam="1">  1       21 0.17600983E-01 0.12500000E+03</pdfrwt>
<pdfrwt beam="2">  1       21 0.47996027E-02 0.12500000E+03</pdfrwt>
<totfact> 0.84237586E+06</totfact>
</mgrwt>
</event>
<event>
 6      0 +9.8758382e+01 1.25000000e+02 7.54677100e-03 1.12640300e-01
       21 -1    0    0  502  501 +0.0000000000e+00 +0.0000000000e+00 +3.8111393858e+01 3.8111393858e+01 0.0000000000e+00 0.0000e+00 -1.0000e+00
       21 -1    0    0  501  502 -0.0000000000e+00 -0.0000000000e+00 -1.0249559527e+02 1.0249559527e+02 0.0000000000e+00 0.0000e+00 -1.0000e+00
       25  2    1    2    0    0 +0.0000000000e+00 +0.0000000000e+00 -6.4384201411e+01 1.4060698913e+02 1.2500000000e+02 0.0000e+00 0.0000e+00
      -15  1    3    3    0    0 +1.5294563937e+01 +5.8035748087e+00 -3.2866541468e+01 3.6755577041e+01 1.7770000000e+00 0.0000e+00 -1.0000e+00
       15  1    3    3    0    0 +2.6999841393e+01 +3.1523727948e+01 -2.0691053165e+01 4.6411359267e+01 1.7770000000e+00 0.0000e+00 -1.0000e+00
       22  1    3    3    0    0 -4.2294405330e+01 -3.7327302757e+01 -1.0826606777e+01 5.7440052817e+01 0.0000000000e+00 0.0000e+00 -1.0000e+00
<mgrwt>
<rscale>  2 0.12500000E+03</rscale>
<asrwt>0</asrwt>
<pdfrwt beam="1">  1       21 0.56046169E-02 0.12500000E+03</pdfrwt>
<pdfrwt beam="2">  1       21 0.15072881E-01 0.12500000E+03</pdfrwt>
<totfact> 0.86235301E+06</totfact>
</mgrwt>
</event>
<event>
 6      0 +9.8758382e+01 1.25000000e+02 7.54677100e-03 1.12640300e-01
       21 -1    0    0  502  501 +0.0000000000e+00 +0.0000000000e+00 +2.5087358376e+01 2.5087358376e+01 0.0000000000e+00 0.0000e+00 1.0000e+00
       21 -1    0    0  501  502 -0.0000000000e+00 -0.0000000000e+00 -1.5570591138e+02 1.5570591138e+02 0.0000000000e+00 0.0000e+00 1.0000e+00
       25  2    1    2    0    0 +0.0000000000e+00 +0.0000000000e+00 -1.3061855300e+02 1.8079326975e+02 1.2500000000e+02 0.0000e+00 0.0000e+00
      -15  1    3    3    0    0 +8.2308416657e+00 +1.4928162755e+01 -4.1800608405e+01 4.5177930340e+01 1.7770000000e+00 0.0000e+00 -1.0000e+00
       15  1    3    3    0    0 +2.8082571760e+01 -3.1912941950e+01 -8.5361718180e+01 9.5377394388e+01 1.7770000000e+00 0.0000e+00 -1.0000e+00
       22  1    3    3    0    0 -3.6313413426e+01 +1.6984779195e+01 -3.4562264186e+00 4.0237945028e+01 0.0000000000e+00 0.0000e+00 -1.0000e+00
<mgrwt>
<rscale>  2 0.12500000E+03</rscale>
<asrwt>0</asrwt>
<pdfrwt beam="1">  1       21 0.36893174E-02 0.12500000E+03</pdfrwt>
<pdfrwt beam="2">  1       21 0.22897928E-01 0.12500000E+03</pdfrwt>
<totfact> 0.79685126E+06</totfact>
</mgrwt>
</event>
<event>
 6      0 +9.8758382e+01 1.25000000e+02 7.54677100e-03 1.12640300e-01
       21 -1    0    0  502  501 +0.0000000000e+00 +0.0000000000e+00 +1.9588653942e+00 1.9588653942e+00 0.0000000000e+00 0.0000e+00 1.0000e+00
       21 -1    0    0  501  502 -0.0000000000e+00 -0.0000000000e+00 -1.9941390621e+03 1.9941390621e+03 0.0000000000e+00 0.0000e+00 1.0000e+00
       25  2    1    2    0    0 +0.0000000000e+00 +0.0000000000e+00 -1.9921801967e+03 1.9960979275e+03 1.2500000000e+02 0.0000e+00 0.0000e+00
      -15  1    3    3    0    0 -2.8237024048e+01 -9.0720793803e+00 -3.2010100861e+02 3.2147697522e+02 1.7770000000e+00 0.0000e+00 -1.0000e+00
       15  1    3    3    0    0 +2.3076054836e+01 -3.3691154969e+01 -4.7120852259e+02 4.7297804147e+02 1.7770000000e+00 0.0000e+00 -1.0000e+00
       22  1    3    3    0    0 +5.1609692119e+00 +4.2763234349e+01 -1.2008706626e+03 1.2016429079e+03 0.0000000000e+00 0.0000e+00 -1.0000e+00
<mgrwt>
<rscale>  2 0.12500000E+03</rscale>
<asrwt>0</asrwt>
<pdfrwt beam="1">  1       21 0.28806808E-03 0.12500000E+03</pdfrwt>
<pdfrwt beam="2">  1       21 0.29325611E+00 0.12500000E+03</pdfrwt>
<totfact> 0.54224017E+05</totfact>
</mgrwt>
</event>
<event>
 6      0 +9.8758382e+01 1.25000000e+02 7.54677100e-03 1.12640300e-01
       21 -1    0    0  502  501 +0.0000000000e+00 +0.0000000000e+00 +3.7745593100e+01 3.7745593100e+01 0.0000000000e+00 0.0000e+00 -1.0000e+00
       21 -1    0    0  501  502 -0.0000000000e+00 -0.0000000000e+00 -1.0348890239e+02 1.0348890239e+02 0.0000000000e+00 0.0000e+00 -1.0000e+00
       25  2    1    2    0    0 +0.0000000000e+00 +0.0000000000e+00 -6.5743309289e+01 1.4123449549e+02 1.2500000000e+02 0.0000e+00 0.0000e+00
      -15  1    3    3    0    0 -3.0534894903e+01 +3.8514674537e+00 -3.4085946949e+01 4.5958928586e+01 1.7770000000e+00 0.0000e+00 -1.0000e+00
       15  1    3    3    0    0 +3.0617403067e+01 +3.7506423703e+01 -1.5411225761e+01 5.0841132934e+01 1.7770000000e+00 0.0000e+00 -1.0000e+00
       22  1    3    3    0    0 -8.2508164154e-02 -4.1357891157e+01 -1.6246136579e+01 4.4434433971e+01 0.0000000000e+00 0.0000e+00 -1.0000e+00
<mgrwt>
<rscale>  2 0.12500000E+03</rscale>
<asrwt>0</asrwt>
<pdfrwt beam="1">  1       21 0.55508226E-02 0.12500000E+03</pdfrwt>
<pdfrwt beam="2">  1       21 0.15218956E-01 0.12500000E+03</pdfrwt>
<totfact> 0.86126612E+06</totfact>
</mgrwt>
</event>
<event>
 6      0 +9.8758382e+01 1.25000000e+02 7.54677100e-03 1.12640300e-01
       21 -1    0    0  502  501 +0.0000000000e+00 +0.0000000000e+00 +2.2796966954e+01 2.2796966954e+01 0.0000000000e+00 0.0000e+00 1.0000e+00
       21 -1    0    0  501  502 -0.0000000000e+00 -0.0000000000e+00 -1.7134954873e+02 1.7134954873e+02 0.0000000000e+00 0.0000e+00 1.0000e+00
       25  2    1    2    0    0 +0.0000000000e+00 +0.0000000000e+00 -1.4855258177e+02 1.9414651568e+02 1.2500000000e+02 0.0000e+00 0.0000e+00
      -15  1    3    3    0    0 +1.2072098378e+01 +3.6298569922e+01 -4.8963900611e+00 3.8606399757e+01 1.7770000000e+00 0.0000e+00 -1.0000e+00
       15  1    3    3    0    0 -2.0737710112e+01 -3.2567508155e+00 -2.8608499935e+01 3.5528341421e+01 1.7770000000e+00 0.0000e+00 -1.0000e+00
       22  1    3    3    0    0 +8.6656117343e+00 -3.3041819106e+01 -1.1504769177e+02 1.2001177450e+02 0.0000000000e+00 0.0000e+00 -1.0000e+00
<mgrwt>
<rscale>  2 0.12500000E+03</rscale>
<asrwt>0</asrwt>
<pdfrwt beam="1">  1       21 0.33524951E-02 0.12500000E+03</pdfrwt>
<pdfrwt beam="2">  1       21 0.25198463E-01 0.12500000E+03</pdfrwt>
<totfact> 0.77680993E+06</totfact>
</mgrwt>
</event>
<event>
 6      0 +9.8758382e+01 1.25000000e+02 7.54677100e-03 1.12640300e-01
       21 -1    0    0  502  501 +0.0000000000e+00 +0.0000000000e+00 +1.9159257946e+02 1.9159257946e+02 0.0000000000e+00 0.0000e+00 -1.0000e+00
       21 -1    0    0  501  502 -0.0000000000e+00 -0.0000000000e+00 -2.0388315722e+01 2.0388315722e+01 0.0000000000e+00 0.0000e+00 -1.0000e+00
       25  2    1    2    0    0 +0.0000000000e+00 +0.0000000000e+00 +1.7120426374e+02 2.1198089518e+02 1.2500000000e+02 0.0000e+00 0.0000e+00
      -15  1    3    3    0    0 -1.0233174489e+01 -2.6231740799e+01 +2.7670758484e+01 3.9517726269e+01 1.7770000000e+00 0.0000e+00 -1.0000e+00
       15  1    3    3    0    0 +4.8104293707e+01 +1.7831469337e+01 +1.0918350202e+02 1.2064899176e+02 1.7770000000e+00 0.0000e+00 -1.0000e+00
       22  1    3    3    0    0 -3.7871119217e+01 +8.4002714611e+00 +3.4350003248e+01 5.1814177158e+01 0.0000000000e+00 0.0000e+00 -1.0000e+00
<mgrwt>
<rscale>  2 0.12500000E+03</rscale>
<asrwt>0</asrwt>
<pdfrwt beam="1">  1       21 0.28175378E-01 0.12500000E+03</pdfrwt>
<pdfrwt beam="2">  1       21 0.29982818E-02 0.12500000E+03</pdfrwt>
<totfact> 0.75105564E+06</totfact>
</mgrwt>
</event>
<event>
 6      0 +9.8758382e+01 1.25000000e+02 7.54677100e-03 1.12640300e-01
       21 -1    0    0  502  501 +0.0000000000e+00 +0.0000000000e+00 +1.2342003961e+02 1.2342003961e+02 0.0000000000e+00 0.0000e+00 1.0000e+00
       21 -1    0    0  501  502 -0.0000000000e+00 -0.0000000000e+00 -3.1650046559e+01 3.1650046559e+01 0.0000000000e+00 0.0000e+00 1.0000e+00
       25  2    1    2    0    0 +0.0000000000e+00 +0.0000000000e+00 +9.1769993053e+01 1.5507008617e+02 1.2500000000e+02 0.0000e+00 0.0000e+00
      -15  1    3    3    0    0 +3.5002201433e+01 -1.0621789070e+01 +2.8817152639e+01 4.6600027075e+01 1.7770000000e+00 0.0000e+00 -1.0000e+00
       15  1    3    3    0    0 -3.0046562415e+01 -8.3246163259e+00 -1.0112634435e+01 3.2825573173e+01 1.7770000000e+00 0.0000e+00 -1.0000e+00
       22  1    3    3    0    0 -4.9556390186e+00 +1.8946405396e+01 +7.3065474850e+01 7.5644485923e+01 0.0000000000e+00 0.0000e+00 -1.0000e+00
<mgrwt>
<rscale>  2 0.12500000E+03</rscale>
<asrwt>0</asrwt>
<pdfrwt beam="1">  1       21 0.18150006E-01 0.12500000E+03</pdfrwt>
<pdfrwt beam="2">  1       21 0.46544187E-02 0.12500000E+03</pdfrwt>
<totfact> 0.83783906E+06</totfact>
</mgrwt>
</event>
<event>
 6      0 +9.8758382e+01 1.25000000e+02 7.54677100e-03 1.12640300e-01
       21 -1    0    0  502  501 +0.0000000000e+00 +0.0000000000e+00 +6.2710072265e+00 6.2710072265e+00 0.0000000000e+00 0.0000e+00 -1.0000e+00
       21 -1    0    0  501  502 -0.0000000000e+00 -0.0000000000e+00 -6.2290631455e+02 6.2290631455e+02 0.0000000000e+00 0.0000e+00 -1.0000e+00
       25  2    1    2    0    0 +0.0000000000e+00 +0.0000000000e+00 -6.1663530732e+02 6.2917732178e+02 1.2500000000e+02 0.0000e+00 0.0000e+00
      -15  1    3    3    0    0 -5.6299802028e+00 +2.0572708961e+01 -1.8594676996e+01 2.8352297485e+01 1.7770000000e+00 0.0000e+00 -1.0000e+00
       15  1    3    3    0    0 +8.0660735713e-01 +1.6906997119e+01 -1.0835183180e+02 1.0968032800e+02 1.7770000000e+00 0.0000e+00 -1.0000e+00
       22  1    3    3    0    0 +4.8233728456e+00 -3.7479706080e+01 -4.8968879836e+02 4.9114469612e+02 0.0000000000e+00 0.0000e+00 -1.0000e+00
<mgrwt>
<rscale>  2 0.12500000E+03</rscale>
<asrwt>0</asrwt>
<pdfrwt beam="1">  1       21 0.92220683E-03 0.12500000E+03</pdfrwt>
<pdfrwt beam="2">  1       21 0.91603881E-01 0.12500000E+03</pdfrwt>
<totfact> 0.36731378E+06</totfact>
</mgrwt>
</event>
<event>
 6      0 +9.8758382e+01 1.25000000e+02 7.54677100e-03 1.12640300e-01
       21 -1    0    0  502  501 +0.0000000000e+00 +0.0000000000e+00 +4.7546130176e+01 4.7546130176e+01 0.0000000000e+00 0.0000e+00 -1.0000e+00
       21 -1    0    0  501  502 -0.0000000000e+00 -0.0000000000e+00 -8.2157054329e+01 8.2157054329e+01 0.0000000000e+00 0.0000e+00 -1.0000e+00
       25  2    1    2    0    0 +0.0000000000e+00 +0.0000000000e+00 -3.4610924154e+01 1.2970318451e+02 1.2500000000e+02 0.0000e+00 0.0000e+00
      -15  1    3    3    0    0 +1.1925532071e+01 -1.9198168508e+01 +6.1056851628e+00 2.3478183693e+01 1.7770000000e+00 0.0000e+00 -1.0000e+00
       15  1    3    3    0    0 -9.4826707397e+00 +2.6346174882e+01 +2.6495163879e+01 3.8590068842e+01 1.7770000000e+00 0.0000e+00 -1.0000e+00
       22  1    3    3    0    0 -2.4428613312e+00 -7.1480063741e+00 -6.7211773194e+01 6.7634931969e+01 0.0000000000e+00 0.0000e+00 -1.0000e+00
<mgrwt>
<rscale>  2 0.12500000E+03</rscale>
<asrwt>0</asrwt>
<pdfrwt beam="1">  1       21 0.69920780E-02 0.12500000E+03</pdfrwt>
<pdfrwt beam="2">  1       21 0.12081920E-01 0.12500000E+03</pdfrwt>
<totfact> 0.88152047E+06</totfact>
</mgrwt>
</event>
<event>
 6      0 +9.8758382e+01 1.25000000e+02 7.54677100e-03 1.12640300e-01
       21 -1    0    0  502  501 +0.0000000000e+00 +0.0000000000e+00 +5.1875657067e+00 5.1875657067e+00 0.0000000000e+00 0.0000e+00 -1.0000e+00
       21 -1    0    0  501  502 -0.0000000000e+00 -0.0000000000e+00 -7.5300251039e+02 7.5300251039e+02 0.0000000000e+00 0.0000e+00 -1.0000e+00
       25  2    1    2    0    0 +0.0000000000e+00 +0.0000000000e+00 -7.4781494469e+02 7.5819007610e+02 1.2500000000e+02 0.0000e+00 0.0000e+00
      -15  1    3    3    0    0 -1.3184645748e+01 +1.4252642301e+01 -2.3464467252e+02 2.3545329212e+02 1.7770000000e+00 0.0000e+00 -1.0000e+00
       15  1    3    3    0    0 -1.4453991195e+01 +6.6767466410e+00 -4.5307607431e+02 4.5335922142e+02 1.7770000000e+00 0.0000e+00 -1.0000e+00
       22  1    3    3    0    0 +2.7638636942e+01 -2.0929388942e+01 -6.0094197985e+01 6.9377562691e+01 0.0000000000e+00 0.0000e+00 -1.0000e+00
<mgrwt>
<rscale>  2 0.12500000E+03</rscale>
<asrwt>0</asrwt>
<pdfrwt beam="1">  1       21 0.76287741E-03 0.12500000E+03</pdfrwt>
<pdfrwt beam="2">  1       21 0.11073565E+00 0.12500000E+03</pdfrwt>
<totfact> 0.30118072E+06</totfact>
</mgrwt>
</event>
<event>
 6      0 +9.8758382e+01 1.25000000e+02 7.54677100e-03 1.12640300e-01
       21 -1    0    0  502  501 +0.0000000000e+00 +0.0000000000e+00 +4.4603871799e+00 4.4603871799e+00 0.0000000000e+00 0.0000e+00 -1.0000e+00
       21 -1    0    0  501  502 -0.0000000000e+00 -0.0000000000e+00 -8.7576478060e+02 8.7576478060e+02 0.0000000000e+00 0.0000e+00 -1.0000e+00
       25  2    1    2    0    0 +0.0000000000e+00 +0.0000000000e+00 -8.7130439342e+02 8.8022516778e+02 1.2500000000e+02 0.0000e+00 0.0000e+00
      -15  1    3    3    0    0 +1.3812992825e+00 +6.9194805877e-02 -2.5582670998e+00 3.4081131411e+00 1.7770000000e+00 0.0000e+00 -1.0000e+00
       15  1    3    3    0    0 -8.2476321523e+00 -1.0986540135e+01 -8.0443154409e+00 1.6018621667e+01 1.7770000000e+00 0.0000e+00 -1.0000e+00
       22  1    3    3    0    0 +6.8663328697e+00 +1.0917345329e+01 -8.6070181086e+02 8.6079843296e+02 0.0000000000e+00 0.0000e+00 -1.0000e+00
<mgrwt>
<rscale>  2 0.12500000E+03</rscale>
<asrwt>0</asrwt>
<pdfrwt beam="1">  1       21 0.65593940E-03 0.12500000E+03</pdfrwt>
<pdfrwt beam="2">  1       21 0.12878892E+00 0.12500000E+03</pdfrwt>
<totfact> 0.25138584E+06</totfact>
</mgrwt>
</event>
<event>
 6      0 +9.8758382e+01 1.25000000e+02 7.54677100e-03 1.12640300e-01
       21 -1    0    0  502  501 +0.0000000000e+00 +0.0000000000e+00 +3.1953638306e+02 3.1953638306e+02 0.0000000000e+00 0.0000e+00 -1.0000e+00
       21 -1    0    0  501  502 -0.0000000000e+00 -0.0000000000e+00 -1.2224742493e+01 1.2224742493e+01 0.0000000000e+00 0.0000e+00 -1.0000e+00
       25  2    1    2    0    0 +0.0000000000e+00 +0.0000000000e+00 +3.0731164057e+02 3.3176112556e+02 1.2500000000e+02 0.0000e+00 0.0000e+00
      -15  1    3    3    0    0 -2.2528366030e+00 -2.7059004202e+01 +1.5504058329e+02 1.5741030836e+02 1.7770000000e+00 0.0000e+00 -1.0000e+00
       15  1    3    3    0    0 +1.5666825164e+01 +5.3579745765e+00 -3.0660033723e+00 1.6932672795e+01 1.7770000000e+00 0.0000e+00 -1.0000e+00
       22  1    3    3    0    0 -1.3413988561e+01 +2.1701029625e+01 +1.5533706062e+02 1.5741814437e+02 0.0000000000e+00 0.0000e+00 -1.0000e+00
<mgrwt>
<rscale>  2 0.12500000E+03</rscale>
<asrwt>0</asrwt>
<pdfrwt beam="1">  1       21 0.46990639E-01 0.12500000E+03</pdfrwt>
<pdfrwt beam="2">  1       21 0.17977565E-02 0.12500000E+03</pdfrwt>
<totfact> 0.60435084E+06</totfact>
</mgrwt>
</event>
<event>
 6      0 +9.8758382e+01 1.25000000e+02 7.54677100e-03 1.12640300e-01
       21 -1    0    0  502  501 +0.0000000000e+00 +0.0000000000e+00 +1.2279931169e+02 1.2279931169e+02 0.0000000000e+00 0.0000e+00 -1.0000e+00
       21 -1    0    0  501  502 -0.0000000000e+00 -0.0000000000e+00 -3.1810031720e+01 3.1810031720e+01 0.0000000000e+00 0.0000e+00 -1.0000e+00
       25  2    1    2    0    0 +0.0000000000e+00 +0.0000000000e+00 +9.0989279967e+01 1.5460934341e+02 1.2500000000e+02 0.0000e+00 0.0000e+00
      -15  1    3    3    0    0 +4.8901162828e-01 -2.1219756793e+01 +7.6358814413e+01 7.9273851163e+01 1.7770000000e+00 0.0000e+00 -1.0000e+00
       15  1    3    3    0    0 +2.0053134780e+01 -1.5918553096e+01 +2.0025333238e+01 3.2553037454e+01 1.7770000000e+00 0.0000e+00 -1.0000e+00
       22  1    3    3    0    0 -2.0542146408e+01 +3.7138309889e+01 -5.3948676864e+00 4.2782454789e+01 0.0000000000e+00 0.0000e+00 -1.0000e+00
<mgrwt>
<rscale>  2 0.12500000E+03</rscale>
<asrwt>0</asrwt>
<pdfrwt beam="1">  1       21 0.18058722E-01 0.12500000E+03</pdfrwt>
<pdfrwt beam="2">  1       21 0.46779459E-02 0.12500000E+03</pdfrwt>
<totfact> 0.83859702E+06</totfact>
</mgrwt>
</event>
<event>
 6      0 +9.8758382e+01 1.25000000e+02 7.54677100e-03 1.12640300e-01
       21 -1    0    0  502  501 +0.0000000000e+00 +0.0000000000e+00 +5.1147100461e+01 5.1147100461e+01 0.0000000000e+00 0.0000e+00 -1.0000e+00
       21 -1    0    0  501  502 -0.0000000000e+00 -0.0000000000e+00 -7.6372853296e+01 7.6372853296e+01 0.0000000000e+00 0.0000e+00 -1.0000e+00
       25  2    1    2    0    0 +0.0000000000e+00 +0.0000000000e+00 -2.5225752835e+01 1.2751995376e+02 1.2500000000e+02 0.0000e+00 0.0000e+00
      -15  1    3    3    0    0 +1.2516352298e+01 +2.4736299171e+01 +2.9522469637e+00 2.7935945709e+01 1.7770000000e+00 0.0000e+00 -1.0000e+00
       15  1    3    3    0    0 +1.5014306458e+01 -5.1061128124e+01 -1.8593484888e+00 5.3284923848e+01 1.7770000000e+00 0.0000e+00 -1.0000e+00
       22  1    3    3    0    0 -2.7530658757e+01 +2.6324828953e+01 -2.6318651309e+01 4.6299084200e+01 0.0000000000e+00 0.0000e+00 -1.0000e+00
<mgrwt>
<rscale>  2 0.12500000E+03</rscale>
<asrwt>0</asrwt>
<pdfrwt beam="1">  1       21 0.75216325E-02 0.12500000E+03</pdfrwt>
<pdfrwt beam="2">  1       21 0.11231302E-01 0.12500000E+03</pdfrwt>
<totfact> 0.88541955E+06</totfact>
</mgrwt>
</event>
<event>
 6      0 +9.8758382e+01 1.25000000e+02 7.54677100e-03 1.12640300e-01
       21 -1    0    0  502  501 +0.0000000000e+00 +0.0000000000e+00 +8.6739246852e+00 8.6739246852e+00 0.0000000000e+00 0.0000e+00 -1.0000e+00
       21 -1    0    0  501  502 -0.0000000000e+00 -0.0000000000e+00 -4.5034400710e+02 4.5034400710e+02 0.0000000000e+00 0.0000e+00 -1.0000e+00
       25  2    1    2    0    0 +0.0000000000e+00 +0.0000000000e+00 -4.4167008241e+02 4.5901793179e+02 1.2500000000e+02 0.0000e+00 0.0000e+00
      -15  1    3    3    0    0 -2.5461476818e+01 +2.0336061569e+01 -2.9627676176e+02 2.9806864895e+02 1.7770000000e+00 0.0000e+00 -1.0000e+00
       15  1    3    3    0    0 +7.7739185467e+00 -1.7650843955e+00 -1.3155393355e+02 1.3180722474e+02 1.7770000000e+00 0.0000e+00 -1.0000e+00
       22  1    3    3    0    0 +1.7687558272e+01 -1.8570977173e+01 -1.3839386983e+01 2.9142057972e+01 0.0000000000e+00 0.0000e+00 -1.0000e+00
<mgrwt>
<rscale>  2 0.12500000E+03</rscale>
<asrwt>0</asrwt>
<pdfrwt beam="1">  1       21 0.12755772E-02 0.12500000E+03</pdfrwt>
<pdfrwt beam="2">  1       21 0.66227059E-01 0.12500000E+03</pdfrwt>
<totfact> 0.48532170E+06</totfact>
</mgrwt>
</event>
<event>
 6      0 +9.8758382e+01 1.25000000e+02 7.54677100e-03 1.12640300e-01
       21 -1    0    0  502  501 +0.0000000000e+00 +0.0000000000e+00 +8.7209313766e+01 8.7209313766e+01 0.0000000000e+00 0.0000e+00 -1.0000e+00
       21 -1    0    0  501  502 -0.0000000000e+00 -0.0000000000e+00 -4.4791660791e+01 4.4791660791e+01 0.0000000000e+00 0.0000e+00 -1.0000e+00
       25  2    1    2    0    0 +0.0000000000e+00 +0.0000000000e+00 +4.2417652975e+01 1.3200097456e+02 1.2500000000e+02 0.0000e+00 0.0000e+00
      -15  1    3    3    0    0 +1.0645899903e+01 +5.3712212087e+00 -9.3326954875e+00 1.5246053131e+01 1.7770000000e+00 0.0000e+00 -1.0000e+00
       15  1    3    3    0    0 +8.3429794998e+00 -5.2591094802e+01 +3.2080692938e+01 6.2191294791e+01 1.7770000000e+00 0.0000e+00 -1.0000e+00
       22  1    3    3    0    0 -1.8988879403e+01 +4.7219873593e+01 +1.9669655523e+01 5.4563626635e+01 0.0000000000e+00 0.0000e+00 -1.0000e+00
<mgrwt>
<rscale>  2 0.12500000E+03</rscale>
<asrwt>0</asrwt>
<pdfrwt beam="1">  1       21 0.12824899E-01 0.12500000E+03</pdfrwt>
<pdfrwt beam="2">  1       21 0.65870089E-02 0.12500000E+03</pdfrwt>
<totfact> 0.87736042E+06</totfact>
</mgrwt>
</event>
<event>
 6      0 +9.8758382e+01 1.25000000e+02 7.54677100e-03 1.12640300e-01
       21 -1    0    0  502  501 +0.0000000000e+00 +0.0000000000e+00 +1.0527945925e+02 1.0527945925e+02 0.0000000000e+00 0.0000e+00 -1.0000e+00
       21 -1    0    0  501  502 -0.0000000000e+00 -0.0000000000e+00 -3.7103629027e+01 3.7103629027e+01 0.0000000000e+00 0.0000e+00 -1.0000e+00
       25  2    1    2    0    0 +0.0000000000e+00 +0.0000000000e+00 +6.8175830220e+01 1.4238308827e+02 1.2500000000e+02 0.0000e+00 0.0000e+00
      -15  1    3    3    0    0 +3.5744174627e+01 -1.7638237727e+01 +5.4634379994e-01 3.9902502058e+01 1.7770000000e+00 0.0000e+00 -1.0000e+00
       15  1    3    3    0    0 -1.0897846742e+01 -6.7402898895e+00 -1.0685069572e+01 1.6778647506e+01 1.7770000000e+00 0.0000e+00 -1.0000e+00
       22  1    3    3    0    0 -2.4846327885e+01 +2.4378527617e+01 +7.8314555994e+01 8.5701938710e+01 0.0000000000e+00 0.0000e+00 -1.0000e+00
<mgrwt>
<rscale>  2 0.12500000E+03</rscale>
<asrwt>0</asrwt>
<pdfrwt beam="1">  1       21 0.15482273E-01 0.12500000E+03</pdfrwt>
<pdfrwt beam="2">  1       21 0.54564161E-02 0.12500000E+03</pdfrwt>
<totfact> 0.85927357E+06</totfact>
</mgrwt>
</event>
<event>
 6      0 +9.8758382e+01 1.25000000e+02 7.54677100e-03 1.12640300e-01
       21 -1    0    0  502  501 +0.0000000000e+00 +0.0000000000e+00 +2.5152129077e+01 2.5152129077e+01 0.0000000000e+00 0.0000e+00 -1.0000e+00
       21 -1    0    0  501  502 -0.0000000000e+00 -0.0000000000e+00 -1.5530494409e+02 1.5530494409e+02 0.0000000000e+00 0.0000e+00 -1.0000e+00
       25  2    1    2    0    0 +0.0000000000e+00 +0.0000000000e+00 -1.3015281501e+02 1.8045707317e+02 1.2500000000e+02 0.0000e+00 0.0000e+00
      -15  1    3    3    0    0 -7.6930084340e+00 -9.3390346797e+00 -1.6342819939e+00 1.2338093619e+01 1.7770000000e+00 0.0000e+00 -1.0000e+00
       15  1    3    3    0    0 -4.7256760822e+01 -8.8515050744e+00 -4.1111185425e+01 6.3283788457e+01 1.7770000000e+00 0.0000e+00 -1.0000e+00
       22  1    3    3    0    0 +5.4949769256e+01 +1.8190539754e+01 -8.7407347582e+01 1.0483519108e+02 0.0000000000e+00 0.0000e+00 -1.0000e+00
<mgrwt>
<rscale>  2 0.12500000E+03</rscale>
<asrwt>0</asrwt>
<pdfrwt beam="1">  1       21 0.36988424E-02 0.12500000E+03</pdfrwt>
<pdfrwt beam="2">  1       21 0.22838963E-01 0.12500000E+03</pdfrwt>
<totfact> 0.79736478E+06</totfact>
</mgrwt>
</event>
<event>
 6      0 +9.8758382e+01 1.25000000e+02 7.54677100e-03 1.12640300e-01
       21 -1    0    0  502  501 +0.0000000000e+00 +0.0000000000e+00 +2.2712156995e+01 2.2712156995e+01 0.0000000000e+00 0.0000e+00 1.0000e+00
       21 -1    0    0  501  502 -0.0000000000e+00 -0.0000000000e+00 -1.7198938880e+02 1.7198938880e+02 0.0000000000e+00 0.0000e+00 1.0000e+00
       25  2    1    2    0    0 +0.0000000000e+00 +0.0000000000e+00 -1.4927723181e+02 1.9470154580e+02 1.2500000000e+02 0.0000e+00 0.0000e+00
      -15  1    3    3    0    0 +2.2466785877e+01 -3.8231618182e+01 -1.1452303618e+02 1.2282140139e+02 1.7770000000e+00 0.0000e+00 -1.0000e+00
       15  1    3    3    0    0 -3.9449462253e+00 +1.9595942480e+01 +8.0768461771e+00 2.1632307681e+01 1.7770000000e+00 0.0000e+00 -1.0000e+00
       22  1    3    3    0    0 -1.8521839651e+01 +1.8635675702e+01 -4.2831041813e+01 5.0247836728e+01 0.0000000000e+00 0.0000e+00 -1.0000e+00
<mgrwt>
<rscale>  2 0.12500000E+03</rscale>
<asrwt>0</asrwt>
<pdfrwt beam="1">  1       21 0.33400230E-02 0.12500000E+03</pdfrwt>
<pdfrwt beam="2">  1       21 0.25292558E-01 0.12500000E+03</pdfrwt>
<totfact> 0.77598770E+06</totfact>
</mgrwt>
</event>
<event>
 6      0 +9.8758382e+01 1.25000000e+02 7.54677100e-03 1.12640300e-01
       21 -1    0    0  502  501 +0.0000000000e+00 +0.0000000000e+00 +2.0908460828e+01 2.0908460828e+01 0.0000000000e+00 0.0000e+00 -1.0000e+00
       21 -1    0    0  501  502 -0.0000000000e+00 -0.0000000000e+00 -1.8682628205e+02 1.8682628205e+02 0.0000000000e+00 0.0000e+00 -1.0000e+00
       25  2    1    2    0    0 +0.0000000000e+00 +0.0000000000e+00 -1.6591782123e+02 2.0773474288e+02 1.2500000000e+02 0.0000e+00 0.0000e+00
      -15  1    3    3    0    0 +1.5595212318e+01 -3.0633682726e+00 -3.8263936782e+01 4.1471453549e+01 1.7770000000e+00 0.0000e+00 -1.0000e+00
       15  1    3    3    0    0 -4.8138288552e+01 -3.1729594989e+01 -8.2185634743e+01 1.0040766061e+02 1.7770000000e+00 0.0000e+00 -1.0000e+00
       22  1    3    3    0    0 +3.2543076234e+01 +3.4792963262e+01 -4.5468249718e+01 6.5855628732e+01 0.0000000000e+00 0.0000e+00 -1.0000e+00
<mgrwt>
<rscale>  2 0.12500000E+03</rscale>
<asrwt>0</asrwt>
<pdfrwt beam="1">  1       21 0.30747737E-02 0.12500000E+03</pdfrwt>
<pdfrwt beam="2">  1       21 0.27474453E-01 0.12500000E+03</pdfrwt>
<totfact> 0.75705174E+06</totfact>
</mgrwt>
</event>
<event>
 6      0 +9.8758382e+01 1.25000000e+02 7.54677100e-03 1.12640300e-01
       21 -1    0    0  502  501 +0.0000000000e+00 +0.0000000000e+00 +2.6887440055e+02 2.6887440055e+02 0.0000000000e+00 0.0000e+00 -1.0000e+00
       21 -1    0    0  501  502 -0.0000000000e+00 -0.0000000000e+00 -1.4528158843e+01 1.4528158843e+01 0.0000000000e+00 0.0000e+00 -1.0000e+00
       25  2    1    2    0    0 +0.0000000000e+00 +0.0000000000e+00 +2.5434624171e+02 2.8340255939e+02 1.2500000000e+02 0.0000e+00 0.0000e+00
      -15  1    3    3    0    0 +3.3523303552e+01 -9.6226196266e+00 +9.5879683719e+01 1.0204155119e+02 1.7770000000e+00 0.0000e+00 -1.0000e+00
       15  1    3    3    0    0 +2.0901845289e+01 -9.5108084142e+00 +1.7131384630e+01 2.8705133366e+01 1.7770000000e+00 0.0000e+00 -1.0000e+00
       22  1    3    3    0    0 -5.4425148841e+01 +1.9133428041e+01 +1.4133517339e+02 1.5265587487e+02 0.0000000000e+00 0.0000e+00 -1.0000e+00
<mgrwt>
<rscale>  2 0.12500000E+03</rscale>
<asrwt>0</asrwt>
<pdfrwt beam="1">  1       21 0.39540350E-01 0.12500000E+03</pdfrwt>
<pdfrwt beam="2">  1       21 0.21364941E-02 0.12500000E+03</pdfrwt>
<totfact> 0.65886788E+06</totfact>
</mgrwt>
</event>
<event>
 6      0 +9.8758382e+01 1.25000000e+02 7.54677100e-03 1.12640300e-01
       21 -1    0    0  502  501 +0.0000000000e+00 +0.0000000000e+00 +2.0192817749e+02 2.0192817749e+02 0.0000000000e+00 0.0000e+00 -1.0000e+00
       21 -1    0    0  501  502 -0.0000000000e+00 -0.0000000000e+00 -1.9344749447e+01 1.9344749447e+01 0.0000000000e+00 0.0000e+00 -1.0000e+00
       25  2    1    2    0    0 +0.0000000000e+00 +0.0000000000e+00 +1.8258342805e+02 2.2127292694e+02 1.2500000000e+02 0.0000e+00 0.0000e+00
      -15  1    3    3    0    0 -2.1431794333e+01 +1.4519975446e+01 +1.0946587695e+01 2.8162688196e+01 1.7770000000e+00 0.0000e+00 -1.0000e+00
       15  1    3    3    0    0 -2.6183881749e+01 -2.5989271033e+01 +5.1518300513e+01 6.3390305955e+01 1.7770000000e+00 0.0000e+00 -1.0000e+00
       22  1    3    3    0    0 +4.7615676082e+01 +1.1469295587e+01 +1.2011853985e+02 1.2971993280e+02 0.0000000000e+00 0.0000e+00 -1.0000e+00
<mgrwt>
<rscale>  2 0.12500000E+03</rscale>
<asrwt>0</asrwt>
<pdfrwt beam="1">  1       21 0.29695319E-01 0.12500000E+03</pdfrwt>
<pdfrwt beam="2">  1       21 0.28448162E-02 0.12500000E+03</pdfrwt>
<totfact> 0.73818866E+06</totfact>
</mgrwt>
</event>
<event>
 6      0 +9.8758382e+01 1.25000000e+02 7.54677100e-03 1.12640300e-01
       21 -1    0    0  502  501 +0.0000000000e+00 +0.0000000000e+00 +1.3387252219e+02 1.3387252219e+02 0.0000000000e+00 0.0000e+00 1.0000e+00
       21 -1    0    0  501  502 -0.0000000000e+00 -0.0000000000e+00 -2.9178878055e+01 2.9178878055e+01 0.0000000000e+00 0.0000e+00 1.0000e+00
       25  2    1    2    0    0 +0.0000000000e+00 +0.0000000000e+00 +1.0469364414e+02 1.6305140025e+02 1.2500000000e+02 0.0000e+00 0.0000e+00
      -15  1    3    3    0    0 -1.1126825755e+01 +1.1588756107e+00 -1.9559433901e+01 2.2602619928e+01 1.7770000000e+00 0.0000e+00 -1.0000e+00
       15  1    3    3    0    0 +2.1032691487e+01 +2.5933320064e+01 +4.4666510374e+01 5.5795753232e+01 1.7770000000e+00 0.0000e+00 -1.0000e+00
       22  1    3    3    0    0 -9.9058657318e+00 -2.7092195675e+01 +7.9586567666e+01 8.4653027089e+01 0.0000000000e+00 0.0000e+00 -1.0000e+00
<mgrwt>
<rscale>  2 0.12500000E+03</rscale>
<asrwt>0</asrwt>
<pdfrwt beam="1">  1       21 0.19687135E-01 0.12500000E+03</pdfrwt>
<pdfrwt beam="2">  1       21 0.42910115E-02 0.12500000E+03</pdfrwt>
<totfact> 0.82482458E+06</totfact>
</mgrwt>
</event>
<event>
 6      0 +9.8758382e+01 1.25000000e+02 7.54677100e-03 1.12640300e-01
       21 -1    0    0  502  501 +0.0000000000e+00 +0.0000000000e+00 +4.8367820774e+02 4.8367820774e+02 0.0000000000e+00 0.0000e+00 1.0000e+00
       21 -1    0    0  501  502 -0.0000000000e+00 -0.0000000000e+00 -8.0761339616e+00 8.0761339616e+00 0.0000000000e+00 0.0000e+00 1.0000e+00
       25  2    1    2    0    0 +0.0000000000e+00 +0.0000000000e+00 +4.7560207378e+02 4.9175434170e+02 1.2500000000e+02 0.0000e+00 0.0000e+00
      -15  1    3    3    0    0 -3.6856135191e+01 +2.7381972997e+01 +1.7864171403e+02 1.8445640912e+02 1.7770000000e+00 0.0000e+00 -1.0000e+00
       15  1    3    3    0    0 -1.1527307284e+01 -6.8601314787e+00 +1.3895302850e+01 1.9395292919e+01 1.7770000000e+00 0.0000e+00 -1.0000e+00
       22  1    3    3    0    0 +4.8383442475e+01 -2.0521841518e+01 +2.8306505695e+02 2.8790263971e+02 0.0000000000e+00 0.0000e+00 -1.0000e+00
<mgrwt>
<rscale>  2 0.12500000E+03</rscale>
<asrwt>0</asrwt>
<pdfrwt beam="1">  1       21 0.71129129E-01 0.12500000E+03</pdfrwt>
<pdfrwt beam="2">  1       21 0.11876671E-02 0.12500000E+03</pdfrwt>
<totfact> 0.45945619E+06</totfact>
</mgrwt>
</event>
<event>
 6      0 +9.8758382e+01 1.25000000e+02 7.54677100e-03 1.12640300e-01
       21 -1    0    0  502  501 +0.0000000000e+00 +0.0000000000e+00 +1.2227017100e+02 1.2227017100e+02 0.0000000000e+00 0.0000e+00 1.0000e+00
       21 -1    0    0  501  502 -0.0000000000e+00 -0.0000000000e+00 -3.1947693931e+01 3.1947693931e+01 0.0000000000e+00 0.0000e+00 1.0000e+00
       25  2    1    2    0    0 +0.0000000000e+00 +0.0000000000e+00 +9.0322477069e+01 1.5421786493e+02 1.2500000000e+02 0.0000e+00 0.0000e+00
      -15  1    3    3    0    0 -4.1949812676e+01 -7.7992311840e+00 +2.7269493963e+01 5.0669495958e+01 1.7770000000e+00 0.0000e+00 -1.0000e+00
       15  1    3    3    0    0 -7.3019182468e+00 +3.7519866474e+00 +5.2305235840e+01 5.2975379557e+01 1.7770000000e+00 0.0000e+00 -1.0000e+00
       22  1    3    3    0    0 +4.9251730923e+01 +4.0472445366e+00 +1.0747747267e+01 5.0572989417e+01 0.0000000000e+00 0.0000e+00 -1.0000e+00
<mgrwt>
<rscale>  2 0.12500000E+03</rscale>
<asrwt>0</asrwt>
<pdfrwt beam="1">  1       21 0.17980907E-01 0.12500000E+03</pdfrwt>
<pdfrwt beam="2">  1       21 0.46981903E-02 0.12500000E+03</pdfrwt>
<totfact> 0.83924202E+06</totfact>
</mgrwt>
</event>
<event>
 6      0 +9.8758382e+01 1.25000000e+02 7.54677100e-03 1.12640300e-01
       21 -1    0    0  502  501 +0.0000000000e+00 +0.0000000000e+00 +2.6503010083e+02 2.6503010083e+02 0.0000000000e+00 0.0000e+00 1.0000e+00
       21 -1    0    0  501  502 -0.0000000000e+00 -0.0000000000e+00 -1.4738891876e+01 1.4738891876e+01 0.0000000000e+00 0.0000e+00 1.0000e+00
       25  2    1    2    0    0 +0.0000000000e+00 +0.0000000000e+00 +2.5029120895e+02 2.7976899270e+02 1.2500000000e+02 0.0000e+00 0.0000e+00
      -15  1    3    3    0    0 +1.6393029750e+01 -7.2659592122e+00 +7.6405064816e+01 7.8501065256e+01 1.7770000000e+00 0.0000e+00 -1.0000e+00
       15  1    3    3    0    0 -5.7398596697e+00 +2.7482143825e+01 +1.7607859107e+02 1.7831164342e+02 1.7770000000e+00 0.0000e+00 -1.0000e+00
       22  1    3    3    0    0 -1.0653170081e+01 -2.0216184613e+01 -2.1924469251e+00 2.2956284033e+01 0.0000000000e+00 0.0000e+00 -1.0000e+00
<mgrwt>
<rscale>  2 0.12500000E+03</rscale>
<asrwt>0</asrwt>
<pdfrwt beam="1">  1       21 0.38975012E-01 0.12500000E+03</pdfrwt>
<pdfrwt beam="2">  1       21 0.21674843E-02 0.12500000E+03</pdfrwt>
<totfact> 0.66318961E+06</totfact>
</mgrwt>
</event>
<event>
 6      0 +9.8758382e+01 1.25000000e+02 7.54677100e-03 1.12640300e-01
       21 -1    0    0  502  501 +0.0000000000e+00 +0.0000000000e+00 +1.2437998793e+02 1.2437998793e+02 0.0000000000e+00 0.0000e+00 -1.0000e+00
       21 -1    0    0  501  502 -0.0000000000e+00 -0.0000000000e+00 -3.1405775680e+01 3.1405775680e+01 0.0000000000e+00 0.0000e+00 -1.0000e+00
       25  2    1    2    0    0 +0.0000000000e+00 +0.0000000000e+00 +9.2974212249e+01 1.5578576361e+02 1.2500000000e+02 0.0000e+00 0.0000e+00
      -15  1    3    3    0    0 +7.4294080858e+00 -7.0832722507e+00 +5.7329301561e+01 5.8268133630e+01 1.7770000000e+00 0.0000e+00 -1.0000e+00
       15  1    3    3    0    0 -2.2230687919e+01 -3.7380021661e+01 +2.1625283208e+01 4.8603293175e+01 1.7770000000e+00 0.0000e+00 -1.0000e+00
       22  1    3    3    0    0 +1.4801279833e+01 +4.4463293911e+01 +1.4019627479e+01 4.8914336802e+01 0.0000000000e+00 0.0000e+00 -1.0000e+00
<mgrwt>
<rscale>  2 0.12500000E+03</rscale>
<asrwt>0</asrwt>
<pdfrwt beam="1">  1       21 0.18291174E-01 0.12500000E+03</pdfrwt>
<pdfrwt beam="2">  1       21 0.46184965E-02 0.12500000E+03</pdfrwt>
<totfact> 0.83666414E+06</totfact>
</mgrwt>
</event>
<event>
 6      0 +9.8758382e+01 1.25000000e+02 7.54677100e-03 1.12640300e-01
       21 -1    0    0  502  501 +0.0000000000e+00 +0.0000000000e+00 +4.1017718405e+02 4.1017718405e+02 0.0000000000e+00 0.0000e+00 -1.0000e+00
       21 -1    0    0  501  502 -0.0000000000e+00 -0.0000000000e+00 -9.5233234609e+00 9.5233234609e+00 0.0000000000e+00 0.0000e+00 -1.0000e+00
       25  2    1    2    0    0 +0.0000000000e+00 +0.0000000000e+00 +4.0065386059e+02 4.1970050751e+02 1.2500000000e+02 0.0000e+00 0.0000e+00
      -15  1    3    3    0    0 -8.7387502698e+00 +2.2181863314e+01 +7.6303245399e+00 2.5095425836e+01 1.7770000000e+00 0.0000e+00 -1.0000e+00
       15  1    3    3    0    0 +3.3625452055e+00 +1.1526111206e+00 +9.0318211990e+00 9.8674589345e+00 1.7770000000e+00 0.0000e+00 -1.0000e+00
       22  1    3    3    0    0 +5.3762050643e+00 -2.3334474434e+01 +3.8399171487e+02 3.8473762276e+02 0.0000000000e+00 0.0000e+00 -1.0000e+00
<mgrwt>
<rscale>  2 0.12500000E+03</rscale>
<asrwt>0</asrwt>
<pdfrwt beam="1">  1       21 0.60320162E-01 0.12500000E+03</pdfrwt>
<pdfrwt beam="2">  1       21 0.14004890E-02 0.12500000E+03</pdfrwt>
<totfact> 0.51874474E+06</totfact>
</mgrwt>
</event>
<event>
 6      0 +9.8758382e+01 1.25000000e+02 7.54677100e-03 1.12640300e-01
       21 -1    0    0  502  501 +0.0000000000e+00 +0.0000000000e+00 +1.1513762386e+03 1.1513762386e+03 0.0000000000e+00 0.0000e+00 1.0000e+00
       21 -1    0    0  501  502 -0.0000000000e+00 -0.0000000000e+00 -3.3926790124e+00 3.3926790124e+00 0.0000000000e+00 0.0000e+00 1.0000e+00
       25  2    1    2    0    0 +0.0000000000e+00 +0.0000000000e+00 +1.1479835596e+03 1.1547689176e+03 1.2500000000e+02 0.0000e+00 0.0000e+00
      -15  1    3    3    0    0 +5.9023408670e+00 -4.4056712449e+01 +5.4404145009e+02 5.4585720540e+02 1.7770000000e+00 0.0000e+00 -1.0000e+00
       15  1    3    3    0    0 -7.8225644562e-01 -9.7653802556e+00 +3.0221969210e+02 3.0238365465e+02 1.7770000000e+00 0.0000e+00 -1.0000e+00
       22  1    3    3    0    0 -5.1200844214e+00 +5.3822092704e+01 +3.0172241951e+02 3.0652805967e+02 0.0000000000e+00 0.0000e+00 -1.0000e+00
<mgrwt>
<rscale>  2 0.12500000E+03</rscale>
<asrwt>0</asrwt>
<pdfrwt beam="1">  1       21 0.16931976E+00 0.12500000E+03</pdfrwt>
<pdfrwt beam="2">  1       21 0.49892418E-03 0.12500000E+03</pdfrwt>
<totfact> 0.17059667E+06</totfact>
</mgrwt>
</event>
<event>
 6      0 +9.8758382e+01 1.25000000e+02 7.54677100e-03 1.12640300e-01
       21 -1    0    0  502  501 +0.0000000000e+00 +0.0000000000e+00 +2.2682842104e+02 2.2682842104e+02 0.0000000000e+00 0.0000e+00 1.0000e+00
       21 -1    0    0  501  502 -0.0000000000e+00 -0.0000000000e+00 -1.7221166475e+01 1.7221166475e+01 0.0000000000e+00 0.0000e+00 1.0000e+00
       25  2    1    2    0    0 +0.0000000000e+00 +0.0000000000e+00 +2.0960725457e+02 2.4404958752e+02 1.2500000000e+02 0.0000e+00 0.0000e+00
      -15  1    3    3    0    0 -1.3129303271e+01 +1.3454019723e+01 +7.9734108775e+01 8.1939459861e+01 1.7770000000e+00 0.0000e+00 -1.0000e+00
       15  1    3    3    0    0 +9.8639524934e+00 +9.4831810925e+00 +1.3713720030e+02 1.3782959667e+02 1.7770000000e+00 0.0000e+00 -1.0000e+00
       22  1    3    3    0    0 +3.2653507781e+00 -2.2937200815e+01 -7.2640545127e+00 2.4280530984e+01 0.0000000000e+00 0.0000e+00 -1.0000e+00
<mgrwt>
<rscale>  2 0.12500000E+03</rscale>
<asrwt>0</asrwt>
<pdfrwt beam="1">  1       21 0.33357119E-01 0.12500000E+03</pdfrwt>
<pdfrwt beam="2">  1       21 0.25325246E-02 0.12500000E+03</pdfrwt>
<totfact> 0.70774389E+06</totfact>
</mgrwt>
</event>
<event>
 6      0 +9.8758382e+01 1.25000000e+02 7.54677100e-03 1.12640300e-01
       21 -1    0    0  502  501 +0.0000000000e+00 +0.0000000000e+00 +1.5760022908e+01 1.5760022908e+01 0.0000000000e+00 0.0000e+00 1.0000e+00
       21 -1    0    0  501  502 -0.0000000000e+00 -0.0000000000e+00 -2.4785814227e+02 2.4785814227e+02 0.0000000000e+00 0.0000e+00 1.0000e+00
       25  2    1    2    0    0 +0.0000000000e+00 +0.0000000000e+00 -2.3209811936e+02 2.6361816518e+02 1.2500000000e+02 0.0000e+00 0.0000e+00
      -15  1    3    3    0    0 +2.2068082063e+01 -6.7035048863e+00 -7.3971008888e+01 7.7503581263e+01 1.7770000000e+00 0.0000e+00 -1.0000e+00
       15  1    3    3    0    0 +3.3382504059e+01 -1.7329890303e+01 -6.4038659363e+01 7.4288789848e+01 1.7770000000e+00 0.0000e+00 -1.0000e+00
       22  1    3    3    0    0 -5.5450586122e+01 +2.4033395190e+01 -9.4088451090e+01 1.1182579405e+02 0.0000000000e+00 0.0000e+00 -1.0000e+00
<mgrwt>
<rscale>  2 0.12500000E+03</rscale>
<asrwt>0</asrwt>
<pdfrwt beam="1">  1       21 0.23176505E-02 0.12500000E+03</pdfrwt>
<pdfrwt beam="2">  1       21 0.36449725E-01 0.12500000E+03</pdfrwt>
<totfact> 0.68283775E+06</totfact>
</mgrwt>
</event>
<event>
 6      0 +9.8758382e+01 1.25000000e+02 7.54677100e-03 1.12640300e-01
       21 -1    0    0  502  501 +0.0000000000e+00 +0.0000000000e+00 +6.3772960174e+02 6.3772960174e+02 0.0000000000e+00 0.0000e+00 -1.0000e+00
       21 -1    0    0  501  502 -0.0000000000e+00 -0.0000000000e+00 -6.1252449147e+00 6.1252449147e+00 0.0000000000e+00 0.0000e+00 -1.0000e+00
       25  2    1    2    0    0 +0.0000000000e+00 +0.0000000000e+00 +6.3160435682e+02 6.4385484665e+02 1.2500000000e+02 0.0000e+00 0.0000e+00
      -15  1    3    3    0    0 +4.3831745457e+00 +5.0309103764e-01 +1.7780845004e+02 1.7787205502e+02 1.7770000000e+00 0.0000e+00 -1.0000e+00
       15  1    3    3    0    0 +2.3170070004e+00 +4.8135450419e+01 +3.1690920866e+02 3.2055731839e+02 1.7770000000e+00 0.0000e+00 -1.0000e+00
       22  1    3    3    0    0 -6.7001815461e+00 -4.8638541457e+01 +1.3688669810e+02 1.4542547323e+02 0.0000000000e+00 0.0000e+00 -1.0000e+00
<mgrwt>
<rscale>  2 0.12500000E+03</rscale>
<asrwt>0</asrwt>
<pdfrwt beam="1">  1       21 0.93783719E-01 0.12500000E+03</pdfrwt>
<pdfrwt beam="2">  1       21 0.90077175E-03 0.12500000E+03</pdfrwt>
<totfact> 0.35894616E+06</totfact>
</mgrwt>
</event>
<event>
 6      0 +9.8758382e+01 1.25000000e+02 7.54677100e-03 1.12640300e-01
       21 -1    0    0  502  501 +0.0000000000e+00 +0.0000000000e+00 +8.4498765288e+01 8.4498765288e+01 0.0000000000e+00 0.0000e+00 -1.0000e+00
       21 -1    0    0  501  502 -0.0000000000e+00 -0.0000000000e+00 -4.6228486141e+01 4.6228486141e+01 0.0000000000e+00 0.0000e+00 -1.0000e+00
       25  2    1    2    0    0 +0.0000000000e+00 +0.0000000000e+00 +3.8270279147e+01 1.3072725143e+02 1.2500000000e+02 0.0000e+00 0.0000e+00
      -15  1    3    3    0    0 -1.2141238661e+01 -4.5749749370e+01 +4.9543672179e+01 6.8543288698e+01 1.7770000000e+00 0.0000e+00 -1.0000e+00
       15  1    3    3    0    0 +1.7021812510e+00 -4.4632267983e+00 +6.1785430792e+00 8.0093656456e+00 1.7770000000e+00 0.0000e+00 -1.0000e+00
       22  1    3    3    0    0 +1.0439057410e+01 +5.0212976168e+01 -1.7451936111e+01 5.4174597085e+01 0.0000000000e+00 0.0000e+00 -1.0000e+00
<mgrwt>
<rscale>  2 0.12500000E+03</rscale>
<asrwt>0</asrwt>
<pdfrwt beam="1">  1       21 0.12426289E-01 0.12500000E+03</pdfrwt>
<pdfrwt beam="2">  1       21 0.67983068E-02 0.12500000E+03</pdfrwt>
<totfact> 0.87965479E+06</totfact>
</mgrwt>
</event>
<event>
 6      0 +9.8758382e+01 1.25000000e+02 7.54677100e-03 1.12640300e-01
       21 -1    0    0  502  501 +0.0000000000e+00 +0.0000000000e+00 +8.5406301399e+00 8.5406301399e+00 0.0000000000e+00 0.0000e+00 1.0000e+00
       21 -1    0    0  501  502 -0.0000000000e+00 -0.0000000000e+00 -4.5737257509e+02 4.5737257509e+02 0.0000000000e+00 0.0000e+00 1.0000e+00
       25  2    1    2    0    0 +0.0000000000e+00 +0.0000000000e+00 -4.4883194495e+02 4.6591320523e+02 1.2500000000e+02 0.0000e+00 0.0000e+00
      -15  1    3    3    0    0 +4.3532180111e+01 -9.3149259812e+00 -1.0791013720e+02 1.1674576648e+02 1.7770000000e+00 0.0000e+00 -1.0000e+00
       15  1    3    3    0    0 -6.7747559602e+00 +7.2177604537e+00 -4.9957005489e+00 1.1229787944e+01 1.7770000000e+00 0.0000e+00 -1.0000e+00
       22  1    3    3    0    0 -3.6757424151e+01 +2.0971655275e+00 -3.3592610720e+02 3.3793765080e+02 0.0000000000e+00 0.0000e+00 -1.0000e+00
<mgrwt>
<rscale>  2 0.12500000E+03</rscale>
<asrwt>0</asrwt>
<pdfrwt beam="1">  1       21 0.12559746E-02 0.12500000E+03</pdfrwt>
<pdfrwt beam="2">  1       21 0.67260693E-01 0.12500000E+03</pdfrwt>
<totfact> 0.47972465E+06</totfact>
</mgrwt>
</event>
<event>
 6      0 +9.8758382e+01 1.25000000e+02 7.54677100e-03 1.12640300e-01
       21 -1    0    0  502  501 +0.0000000000e+00 +0.0000000000e+00 +7.5043134127e+01 7.5043134127e+01 0.0000000000e+00 0.0000e+00 -1.0000e+00
       21 -1    0    0  501  502 -0.0000000000e+00 -0.0000000000e+00 -5.2053396296e+01 5.2053396296e+01 0.0000000000e+00 0.0000e+00 -1.0000e+00
       25  2    1    2    0    0 +0.0000000000e+00 +0.0000000000e+00 +2.2989737831e+01 1.2709653042e+02 1.2500000000e+02 0.0000e+00 0.0000e+00
      -15  1    3    3    0    0 -2.2410715973e+00 +2.0054711338e+01 +7.7944329345e+00 2.1705408601e+01 1.7770000000e+00 0.0000e+00 -1.0000e+00
       15  1    3    3    0    0 +1.4389326585e+01 -7.6847271666e+00 +5.7434218626e+01 5.9732360990e+01 1.7770000000e+00 0.0000e+00 -1.0000e+00
       22  1    3    3    0    0 -1.2148254988e+01 -1.2369984172e+01 -4.2238913730e+01 4.5658760832e+01 0.0000000000e+00 0.0000e+00 -1.0000e+00
<mgrwt>
<rscale>  2 0.12500000E+03</rscale>
<asrwt>0</asrwt>
<pdfrwt beam="1">  1       21 0.11035755E-01 0.12500000E+03</pdfrwt>
<pdfrwt beam="2">  1       21 0.76549112E-02 0.12500000E+03</pdfrwt>
<totfact> 0.88616422E+06</totfact>
</mgrwt>
</event>
<event>
 6      0 +9.8758382e+01 1.25000000e+02 7.54677100e-03 1.12640300e-01
       21 -1    0    0  502  501 +0.0000000000e+00 +0.0000000000e+00 +1.3486814254e+01 1.3486814254e+01 0.0000000000e+00 0.0000e+00 -1.0000e+00
       21 -1    0    0  501  502 -0.0000000000e+00 -0.0000000000e+00 -2.8963474445e+02 2.8963474445e+02 0.0000000000e+00 0.0000e+00 -1.0000e+00
       25  2    1    2    0    0 +0.0000000000e+00 +0.0000000000e+00 -2.7614793020e+02 3.0312155871e+02 1.2500000000e+02 0.0000e+00 0.0000e+00
      -15  1    3    3    0    0 +1.9878168060e+01 -2.4626129499e+01 -2.1182498966e+02 2.1418350028e+02 1.7770000000e+00 0.0000e+00 -1.0000e+00
       15  1    3    3    0    0 +6.5562290931e+00 +1.6076581044e+01 -5.7830897436e+01 6.0407044501e+01 1.7770000000e+00 0.0000e+00 -1.0000e+00
       22  1    3    3    0    0 -2.6434397153e+01 +8.5495484551e+00 -6.4920430950e+00 2.8531013918e+01 0.0000000000e+00 0.0000e+00 -1.0000e+00
<mgrwt>
<rscale>  2 0.12500000E+03</rscale>
<asrwt>0</asrwt>
<pdfrwt beam="1">  1       21 0.19833549E-02 0.12500000E+03</pdfrwt>
<pdfrwt beam="2">  1       21 0.42593349E-01 0.12500000E+03</pdfrwt>
<totfact> 0.63592762E+06</totfact>
</mgrwt>
</event>
<event>
 6      0 +9.8758382e+01 1.25000000e+02 7.54677100e-03 1.12640300e-01
       21 -1    0    0  502  501 +0.0000000000e+00 +0.0000000000e+00 +3.2120078749e+02 3.2120078749e+02 0.0000000000e+00 0.0000e+00 -1.0000e+00
       21 -1    0    0  501  502 -0.0000000000e+00 -0.0000000000e+00 -1.2161396087e+01 1.2161396087e+01 0.0000000000e+00 0.0000e+00 -1.0000e+00
       25  2    1    2    0    0 +0.0000000000e+00 +0.0000000000e+00 +3.0903939141e+02 3.3336218358e+02 1.2500000000e+02 0.0000e+00 0.0000e+00
      -15  1    3    3    0    0 +1.2210443586e+00 -4.0180486724e+01 +1.8089535976e+02 1.8531662465e+02 1.7770000000e+00 0.0000e+00 -1.0000e+00
       15  1    3    3    0    0 +2.7662049939e+01 +7.2931735225e+00 +3.5856773655e+01 4.5904741943e+01 1.7770000000e+00 0.0000e+00 -1.0000e+00
       22  1    3    3    0    0 -2.8883094298e+01 +3.2887313201e+01 +9.2287258016e+01 1.0214081700e+02 0.0000000000e+00 0.0000e+00 -1.0000e+00
<mgrwt>
<rscale>  2 0.12500000E+03</rscale>
<asrwt>0</asrwt>
<pdfrwt beam="1">  1       21 0.47235404E-01 0.12500000E+03</pdfrwt>
<pdfrwt beam="2">  1       21 0.17884408E-02 0.12500000E+03</pdfrwt>
<totfact> 0.60264655E+06</totfact>
</mgrwt>
</event>
<event>
 6      0 +9.8758382e+01 1.25000000e+02 7.54677100e-03 1.12640300e-01
       21 -1    0    0  502  501 +0.0000000000e+00 +0.0000000000e+00 +4.9013112389e+01 4.9013112389e+01 0.0000000000e+00 0.0000e+00 -1.0000e+00
       21 -1    0    0  501  502 -0.0000000000e+00 -0.0000000000e+00 -7.9698060572e+01 7.9698060572e+01 0.0000000000e+00 0.0000e+00 -1.0000e+00
       25  2    1    2    0    0 +0.0000000000e+00 +0.0000000000e+00 -3.0684948184e+01 1.2871117296e+02 1.2500000000e+02 0.0000e+00 0.0000e+00
      -15  1    3    3    0    0 +2.6749404030e+01 -4.5243792795e+00 +1.7331500288e+01 3.2241886655e+01 1.7770000000e+00 0.0000e+00 -1.0000e+00
       15  1    3    3    0    0 -3.2350594253e-02 +3.9127152759e+01 -2.9302229502e+01 4.8915370922e+01 1.7770000000e+00 0.0000e+00 -1.0000e+00
       22  1    3    3    0    0 -2.6717053436e+01 -3.4602773480e+01 -1.8714218971e+01 4.7553915386e+01 0.0000000000e+00 0.0000e+00 -1.0000e+00
<mgrwt>
<rscale>  2 0.12500000E+03</rscale>
<asrwt>0</asrwt>
<pdfrwt beam="1">  1       21 0.72078107E-02 0.12500000E+03</pdfrwt>
<pdfrwt beam="2">  1       21 0.11720303E-01 0.12500000E+03</pdfrwt>
<totfact> 0.88331200E+06</totfact>
</mgrwt>
</event>
<event>
 6      0 +9.8758382e+01 1.25000000e+02 7.54677100e-03 1.12640300e-01
       21 -1    0    0  502  501 +0.0000000000e+00 +0.0000000000e+00 +3.9037418513e+02 3.9037418513e+02 0.0000000000e+00 0.0000e+00 -1.0000e+00
       21 -1    0    0  501  502 -0.0000000000e+00 -0.0000000000e+00 -1.0006424986e+01 1.0006424986e+01 0.0000000000e+00 0.0000e+00 -1.0000e+00
       25  2    1    2    0    0 +0.0000000000e+00 +0.0000000000e+00 +3.8036776014e+02 4.0038061011e+02 1.2500000000e+02 0.0000e+00 0.0000e+00
      -15  1    3    3    0    0 -3.4882117938e-01 +3.1308517021e+01 +1.5238855958e+02 1.5558205467e+02 1.7770000000e+00 0.0000e+00 -1.0000e+00
       15  1    3    3    0    0 +2.4983375561e+01 +1.2047319026e+01 +3.1130912837e+01 4.1732462343e+01 1.7770000000e+00 0.0000e+00 -1.0000e+00
       22  1    3    3    0    0 -2.4634554381e+01 -4.3355836046e+01 +1.9684828774e+02 2.0306609312e+02 0.0000000000e+00 0.0000e+00 -1.0000e+00
<mgrwt>
<rscale>  2 0.12500000E+03</rscale>
<asrwt>0</asrwt>
<pdfrwt beam="1">  1       21 0.57407958E-01 0.12500000E+03</pdfrwt>
<pdfrwt beam="2">  1       21 0.14715334E-02 0.12500000E+03</pdfrwt>
<totfact> 0.53620778E+06</totfact>
</mgrwt>
</event>
<event>
 6      0 +9.8758382e+01 1.25000000e+02 7.54677100e-03 1.12640300e-01
       21 -1    0    0  502  501 +0.0000000000e+00 +0.0000000000e+00 +6.0646862342e+01 6.0646862342e+01 0.0000000000e+00 0.0000e+00 -1.0000e+00
       21 -1    0    0  501  502 -0.0000000000e+00 -0.0000000000e+00 -6.4409762503e+01 6.4409762503e+01 0.0000000000e+00 0.0000e+00 -1.0000e+00
       25  2    1    2    0    0 +0.0000000000e+00 +0.0000000000e+00 -3.7629001601e+00 1.2505662484e+02 1.2500000000e+02 0.0000e+00 0.0000e+00
      -15  1    3    3    0    0 -1.5271650829e+01 +5.4265781828e+01 -8.3237445194e+00 5.7012637620e+01 1.7770000000e+00 0.0000e+00 -1.0000e+00
       15  1    3    3    0    0 +1.9786758186e+01 -8.1249685991e+00 +2.8413607520e+00 2.1650911624e+01 1.7770000000e+00 0.0000e+00 -1.0000e+00
       22  1    3    3    0    0 -4.5151073570e+00 -4.6140813229e+01 +1.7194836072e+00 4.6393075601e+01 0.0000000000e+00 0.0000e+00 -1.0000e+00
<mgrwt>
<rscale>  2 0.12500000E+03</rscale>
<asrwt>0</asrwt>
<pdfrwt beam="1">  1       21 0.89186563E-02 0.12500000E+03</pdfrwt>
<pdfrwt beam="2">  1       21 0.94720238E-02 0.12500000E+03</pdfrwt>
<totfact> 0.88990263E+06</totfact>
</mgrwt>
</event>
<event>
 6      0 +9.8758382e+01 1.25000000e+02 7.54677100e-03 1.12640300e-01
       21 -1    0    0  502  501 +0.0000000000e+00 +0.0000000000e+00 +1.8226711168e+02 1.8226711168e+02 0.0000000000e+00 0.0000e+00 -1.0000e+00
       21 -1    0    0  501  502 -0.0000000000e+00 -0.0000000000e+00 -2.1431458281e+01 2.1431458281e+01 0.0000000000e+00 0.0000e+00 -1.0000e+00
       25  2    1    2    0    0 +0.0000000000e+00 +0.0000000000e+00 +1.6083565340e+02 2.0369856996e+02 1.2500000000e+02 0.0000e+00 0.0000e+00
      -15  1    3    3    0    0 -2.2360847795e+01 +1.6598876613e+01 +5.7937623442e+00 2.8500098773e+01 1.7770000000e+00 0.0000e+00 -1.0000e+00
       15  1    3    3    0    0 -2.5429427908e+01 -1.2934955278e+01 +8.9818665396e+01 9.4257727822e+01 1.7770000000e+00 0.0000e+00 -1.0000e+00
       22  1    3    3    0    0 +4.7790275703e+01 -3.6639213352e+00 +6.5223225665e+01 8.0940743371e+01 0.0000000000e+00 0.0000e+00 -1.0000e+00
<mgrwt>
<rscale>  2 0.12500000E+03</rscale>
<asrwt>0</asrwt>
<pdfrwt beam="1">  1       21 0.26803986E-01 0.12500000E+03</pdfrwt>
<pdfrwt beam="2">  1       21 0.31516851E-02 0.12500000E+03</pdfrwt>
<totfact> 0.76282690E+06</totfact>
</mgrwt>
</event>
<event>
 6      0 +9.8758382e+01 1.25000000e+02 7.54677100e-03 1.12640300e-01
       21 -1    0    0  502  501 +0.0000000000e+00 +0.0000000000e+00 +9.6494687732e+02 9.6494687732e+02 0.0000000000e+00 0.0000e+00 -1.0000e+00
       21 -1    0    0  501  502 -0.0000000000e+00 -0.0000000000e+00 -4.0481503094e+00 4.0481503094e+00 0.0000000000e+00 0.0000e+00 -1.0000e+00
       25  2    1    2    0    0 +0.0000000000e+00 +0.0000000000e+00 +9.6089872701e+02 9.6899502763e+02 1.2500000000e+02 0.0000e+00 0.0000e+00
      -15  1    3    3    0    0 -3.1221784076e+01 +1.0047066745e+01 +1.0173760316e+02 1.0690856363e+02 1.7770000000e+00 0.0000e+00 -1.0000e+00
       15  1    3    3    0    0 -9.8306866134e+00 -4.1867521087e-01 +5.4687882655e+02 5.4697022437e+02 1.7770000000e+00 0.0000e+00 -1.0000e+00
       22  1    3    3    0    0 +4.1052470690e+01 -9.6283915338e+00 +3.1228229724e+02 3.1511623958e+02 0.0000000000e+00 0.0000e+00 -1.0000e+00
<mgrwt>
<rscale>  2 0.12500000E+03</rscale>
<asrwt>0</asrwt>
<pdfrwt beam="1">  1       21 0.14190379E+00 0.12500000E+03</pdfrwt>
<pdfrwt beam="2">  1       21 0.59531689E-03 0.12500000E+03</pdfrwt>
<totfact> 0.22130372E+06</totfact>
</mgrwt>
</event>
<event>
 6      0 +9.8758382e+01 1.25000000e+02 7.54677100e-03 1.12640300e-01
       21 -1    0    0  502  501 +0.0000000000e+00 +0.0000000000e+00 +1.1793381817e+01 1.1793381817e+01 0.0000000000e+00 0.0000e+00 -1.0000e+00
       21 -1    0    0  501  502 -0.0000000000e+00 -0.0000000000e+00 -3.3122390682e+02 3.3122390682e+02 0.0000000000e+00 0.0000e+00 -1.0000e+00
       25  2    1    2    0    0 +0.0000000000e+00 +0.0000000000e+00 -3.1943052501e+02 3.4301728864e+02 1.2500000000e+02 0.0000e+00 0.0000e+00
      -15  1    3    3    0    0 -1.4580053973e+01 -3.7862302370e+01 -1.0671542692e+02 1.1418174980e+02 1.7770000000e+00 0.0000e+00 -1.0000e+00
       15  1    3    3    0    0 +1.2678021357e+01 +2.8346936475e+01 -2.2537746217e+01 3.8410789716e+01 1.7770000000e+00 0.0000e+00 -1.0000e+00
       22  1    3    3    0    0 +1.9020326154e+00 +9.5153658955e+00 -1.9017735189e+02 1.9042474915e+02 0.0000000000e+00 0.0000e+00 -1.0000e+00
<mgrwt>
<rscale>  2 0.12500000E+03</rscale>
<asrwt>0</asrwt>
<pdfrwt beam="1">  1       21 0.17343206E-02 0.12500000E+03</pdfrwt>
<pdfrwt beam="2">  1       21 0.48709405E-01 0.12500000E+03</pdfrwt>
<totfact> 0.59249689E+06</totfact>
</mgrwt>
</event>
<event>
 6      0 +9.8758382e+01 1.25000000e+02 7.54677100e-03 1.12640300e-01
       21 -1    0    0  502  501 +0.0000000000e+00 +0.0000000000e+00 +1.7411335516e+02 1.7411335516e+02 0.0000000000e+00 0.0000e+00 -1.0000e+00
       21 -1    0    0  501  502 -0.0000000000e+00 -0.0000000000e+00 -2.2435096930e+01 2.2435096930e+01 0.0000000000e+00 0.0000e+00 -1.0000e+00
       25  2    1    2    0    0 +0.0000000000e+00 +0.0000000000e+00 +1.5167825823e+02 1.9654845210e+02 1.2500000000e+02 0.0000e+00 0.0000e+00
      -15  1    3    3    0    0 +1.6906921983e+01 -1.9049566673e+01 +6.2959156793e+01 6.7939260774e+01 1.7770000000e+00 0.0000e+00 -1.0000e+00
       15  1    3    3    0    0 +1.0472533883e+01 +3.4998903701e+01 +2.3952937006e+00 3.6653681767e+01 1.7770000000e+00 0.0000e+00 -1.0000e+00
       22  1    3    3    0    0 -2.7379455866e+01 -1.5949337028e+01 +8.6323807722e+01 9.1955509540e+01 0.0000000000e+00 0.0000e+00 -1.0000e+00
<mgrwt>
<rscale>  2 0.12500000E+03</rscale>
<asrwt>0</asrwt>
<pdfrwt beam="1">  1       21 0.25604904E-01 0.12500000E+03</pdfrwt>
<pdfrwt beam="2">  1       21 0.32992791E-02 0.12500000E+03</pdfrwt>
<totfact> 0.77325678E+06</totfact>
</mgrwt>
</event>
<event>
 6      0 +9.8758382e+01 1.25000000e+02 7.54677100e-03 1.12640300e-01
       21 -1    0    0  502  501 +0.0000000000e+00 +0.0000000000e+00 +1.8682488975e+03 1.8682488975e+03 0.0000000000e+00 0.0000e+00 -1.0000e+00
       21 -1    0    0  501  502 -0.0000000000e+00 -0.0000000000e+00 -2.0908616648e+00 2.0908616648e+00 0.0000000000e+00 0.0000e+00 -1.0000e+00
       25  2    1    2    0    0 +0.0000000000e+00 +0.0000000000e+00 +1.8661580358e+03 1.8703397591e+03 1.2500000000e+02 0.0000e+00 0.0000e+00
      -15  1    3    3    0    0 +1.6121895035e+01 -2.8311228422e+00 +4.5910986797e+01 4.8774042213e+01 1.7770000000e+00 0.0000e+00 -1.0000e+00
       15  1    3    3    0    0 +1.3288870214e+01 +6.7203834711e+00 +1.4665492451e+03 1.4666259249e+03 1.7770000000e+00 0.0000e+00 -1.0000e+00
       22  1    3    3    0    0 -2.9410765249e+01 -3.8892606289e+00 +3.5369781055e+02 3.5493979863e+02 0.0000000000e+00 0.0000e+00 -1.0000e+00
<mgrwt>
<rscale>  2 0.12500000E+03</rscale>
<asrwt>0</asrwt>
<pdfrwt beam="1">  1       21 0.27474132E+00 0.12500000E+03</pdfrwt>
<pdfrwt beam="2">  1       21 0.30748096E-03 0.12500000E+03</pdfrwt>
<totfact> 0.64143270E+05</totfact>
</mgrwt>
</event>
<event>
 6      0 +9.8758382e+01 1.25000000e+02 7.54677100e-03 1.12640300e-01
       21 -1    0    0  502  501 +0.0000000000e+00 +0.0000000000e+00 +6.4287801943e+01 6.4287801943e+01 0.0000000000e+00 0.0000e+00 -1.0000e+00
       21 -1    0    0  501  502 -0.0000000000e+00 -0.0000000000e+00 -6.0761915666e+01 6.0761915666e+01 0.0000000000e+00 0.0000e+00 -1.0000e+00
       25  2    1    2    0    0 +0.0000000000e+00 +0.0000000000e+00 +3.5258862775e+00 1.2504971761e+02 1.2500000000e+02 0.0000e+00 0.0000e+00
      -15  1    3    3    0    0 -1.1490406741e+01 +2.9864462241e+01 -2.1818335259e+01 3.8770001735e+01 1.7770000000e+00 0.0000e+00 -1.0000e+00
       15  1    3    3    0    0 -3.7255266596e+00 -1.5627015493e+01 -2.6142740426e+01 3.0735708356e+01 1.7770000000e+00 0.0000e+00 -1.0000e+00
       22  1    3    3    0    0 +1.5215933400e+01 -1.4237446748e+01 +5.1486961962e+01 5.5544007519e+01 0.0000000000e+00 0.0000e+00 -1.0000e+00
<mgrwt>
<rscale>  2 0.12500000E+03</rscale>
<asrwt>0</asrwt>
<pdfrwt beam="1">  1       21 0.94540886E-02 0.12500000E+03</pdfrwt>
<pdfrwt beam="2">  1       21 0.89355758E-02 0.12500000E+03</pdfrwt>
<totfact> 0.88991726E+06</totfact>
</mgrwt>
</event>
<event>
 6      0 +9.8758382e+01 1.25000000e+02 7.54677100e-03 1.12640300e-01
       21 -1    0    0  502  501 +0.0000000000e+00 +0.0000000000e+00 +1.7787102783e+01 1.7787102783e+01 0.0000000000e+00 0.0000e+00 1.0000e+00
       21 -1    0    0  501  502 -0.0000000000e+00 -0.0000000000e+00 -2.1961136941e+02 2.1961136941e+02 0.0000000000e+00 0.0000e+00 1.0000e+00
       25  2    1    2    0    0 +0.0000000000e+00 +0.0000000000e+00 -2.0182426663e+02 2.3739847219e+02 1.2500000000e+02 0.0000e+00 0.0000e+00
      -15  1    3    3    0    0 -1.4328390728e+01 -1.6731035000e-01 -1.1633675230e+02 1.1722938385e+02 1.7770000000e+00 0.0000e+00 -1.0000e+00
       15  1    3    3    0    0 +1.5815546186e+01 +4.0034836523e+01 -5.5507119697e+01 7.0264626254e+01 1.7770000000e+00 0.0000e+00 -1.0000e+00
       22  1    3    3    0    0 -1.4871554587e+00 -3.9867526173e+01 -2.9980394650e+01 4.9904462103e+01 0.0000000000e+00 0.0000e+00 -1.0000e+00
<mgrwt>
<rscale>  2 0.12500000E+03</rscale>
<asrwt>0</asrwt>
<pdfrwt beam="1">  1       21 0.26157508E-02 0.12500000E+03</pdfrwt>
<pdfrwt beam="2">  1       21 0.32295785E-01 0.12500000E+03</pdfrwt>
<totfact> 0.71650750E+06</totfact>
</mgrwt>
</event>
<event>
 6      0 +9.8758382e+01 1.25000000e+02 7.54677100e-03 1.12640300e-01
       21 -1    0    0  502  501 +0.0000000000e+00 +0.0000000000e+00 +3.6190286398e+02 3.6190286398e+02 0.0000000000e+00 0.0000e+00 1.0000e+00
       21 -1    0    0  501  502 -0.0000000000e+00 -0.0000000000e+00 -1.0793642131e+01 1.0793642131e+01 0.0000000000e+00 0.0000e+00 1.0000e+00
       25  2    1    2    0    0 +0.0000000000e+00 +0.0000000000e+00 +3.5110922185e+02 3.7269650611e+02 1.2500000000e+02 0.0000e+00 0.0000e+00
      -15  1    3    3    0    0 +1.7653860792e+01 -9.5028084819e+00 +5.8057361684e+00 2.0948185394e+01 1.7770000000e+00 0.0000e+00 -1.0000e+00
       15  1    3    3    0    0 -1.7517153378e+01 -1.2610217152e+01 +3.8694041196e+01 4.4342471652e+01 1.7770000000e+00 0.0000e+00 -1.0000e+00
       22  1    3    3    0    0 -1.3670741387e-01 +2.2113025634e+01 +3.0660944450e+02 3.0740584908e+02 0.0000000000e+00 0.0000e+00 -1.0000e+00
<mgrwt>
<rscale>  2 0.12500000E+03</rscale>
<asrwt>0</asrwt>
<pdfrwt beam="1">  1       21 0.53221001E-01 0.12500000E+03</pdfrwt>
<pdfrwt beam="2">  1       21 0.15873005E-02 0.12500000E+03</pdfrwt>
<totfact> 0.56255265E+06</totfact>
</mgrwt>
</event>
<event>
 6      0 +9.8758382e+01 1.25000000e+02 7.54677100e-03 1.12640300e-01
       21 -1    0    0  502  501 +0.0000000000e+00 +0.0000000000e+00 +6.9701214966e+00 6.9701214966e+00 0.0000000000e+00 0.0000e+00 -1.0000e+00
       21 -1    0    0  501  502 -0.0000000000e+00 -0.0000000000e+00 -5.6042782065e+02 5.6042782065e+02 0.0000000000e+00 0.0000e+00 -1.0000e+00
       25  2    1    2    0    0 +0.0000000000e+00 +0.0000000000e+00 -5.5345769915e+02 5.6739794215e+02 1.2500000000e+02 0.0000e+00 0.0000e+00
      -15  1    3    3    0    0 +2.7782433593e+01 +8.2417909886e+00 -3.5210943124e+02 3.5330440137e+02 1.7770000000e+00 0.0000e+00 -1.0000e+00
       15  1    3    3    0    0 -1.4079539941e+01 -9.1201840964e+00 -1.9953095817e+02 2.0024278314e+02 1.7770000000e+00 0.0000e+00 -1.0000e+00
       22  1    3    3    0    0 -1.3702893652e+01 +8.7839310779e-01 -1.8173096044e+00 1.3850757493e+01 0.0000000000e+00 0.0000e+00 -1.0000e+00
<mgrwt>
<rscale>  2 0.12500000E+03</rscale>
<asrwt>0</asrwt>
<pdfrwt beam="1">  1       21 0.10250176E-02 0.12500000E+03</pdfrwt>
<pdfrwt beam="2">  1       21 0.82415878E-01 0.12500000E+03</pdfrwt>
<totfact> 0.40635604E+06</totfact>
</mgrwt>
</event>
<event>
 6      0 +9.8758382e+01 1.25000000e+02 7.54677100e-03 1.12640300e-01
       21 -1    0    0  502  501 +0.0000000000e+00 +0.0000000000e+00 +3.4638710538e+02 3.4638710538e+02 0.0000000000e+00 0.0000e+00 -1.0000e+00
       21 -1    0    0  501  502 -0.0000000000e+00 -0.0000000000e+00 -1.1277123020e+01 1.1277123020e+01 0.0000000000e+00 0.0000e+00 -1.0000e+00
       25  2    1    2    0    0 +0.0000000000e+00 +0.0000000000e+00 +3.3510998236e+02 3.5766422840e+02 1.2500000000e+02 0.0000e+00 0.0000e+00
      -15  1    3    3    0    0 +8.9295583487e+00 -1.0271388504e+00 +1.5932693320e+02 1.5959016699e+02 1.7770000000e+00 0.0000e+00 -1.0000e+00
       15  1    3    3    0    0 -1.3426998050e+01 +7.8105679759e+00 +1.8506780432e+02 1.8572705558e+02 1.7770000000e+00 0.0000e+00 -1.0000e+00
       22  1    3    3    0    0 +4.4974397017e+00 -6.7834291255e+00 -9.2847551646e+00 1.2347005832e+01 0.0000000000e+00 0.0000e+00 -1.0000e+00
<mgrwt>
<rscale>  2 0.12500000E+03</rscale>
<asrwt>0</asrwt>
<pdfrwt beam="1">  1       21 0.50939273E-01 0.12500000E+03</pdfrwt>
<pdfrwt beam="2">  1       21 0.16584007E-02 0.12500000E+03</pdfrwt>
<totfact> 0.57749843E+06</totfact>
</mgrwt>
</event>
<event>
 6      0 +9.8758382e+01 1.25000000e+02 7.54677100e-03 1.12640300e-01
       21 -1    0    0  502  501 +0.0000000000e+00 +0.0000000000e+00 +1.1401644459e+02 1.1401644459e+02 0.0000000000e+00 0.0000e+00 1.0000e+00
       21 -1    0    0  501  502 -0.0000000000e+00 -0.0000000000e+00 -3.4260408787e+01 3.4260408787e+01 0.0000000000e+00 0.0000e+00 1.0000e+00
       25  2    1    2    0    0 +0.0000000000e+00 +0.0000000000e+00 +7.9756035799e+01 1.4827685337e+02 1.2500000000e+02 0.0000e+00 0.0000e+00
      -15  1    3    3    0    0 +1.5199207196e+01 +4.3643098218e+01 +9.9161642194e+00 4.7299301932e+01 1.7770000000e+00 0.0000e+00 -1.0000e+00
       15  1    3    3    0    0 +5.1743947912e+00 -3.4480734679e+01 +8.8370798459e+00 3.6013152245e+01 1.7770000000e+00 0.0000e+00 -1.0000e+00
       22  1    3    3    0    0 -2.0373601987e+01 -9.1623635387e+00 +6.1002791735e+01 6.4964399196e+01 0.0000000000e+00 0.0000e+00 -1.0000e+00
<mgrwt>
<rscale>  2 0.12500000E+03</rscale>
<asrwt>0</asrwt>
<pdfrwt beam="1">  1       21 0.16767124E-01 0.12500000E+03</pdfrwt>
<pdfrwt beam="2">  1       21 0.50382954E-02 0.12500000E+03</pdfrwt>
<totfact> 0.84915596E+06</totfact>
</mgrwt>
</event>
<event>
 6      0 +9.8758382e+01 1.25000000e+02 7.54677100e-03 1.12640300e-01
       21 -1    0    0  502  501 +0.0000000000e+00 +0.0000000000e+00 +3.4757337934e+02 3.4757337934e+02 0.0000000000e+00 0.0000e+00 1.0000e+00
       21 -1    0    0  501  502 -0.0000000000e+00 -0.0000000000e+00 -1.1238634004e+01 1.1238634004e+01 0.0000000000e+00 0.0000e+00 1.0000e+00
       25  2    1    2    0    0 +0.0000000000e+00 +0.0000000000e+00 +3.3633474534e+02 3.5881201335e+02 1.2500000000e+02 0.0000e+00 0.0000e+00
      -15  1    3    3    0    0 -3.3385754185e+01 +2.7826730109e+01 +5.4838255095e+01 6.9995195850e+01 1.7770000000e+00 0.0000e+00 -1.0000e+00
       15  1    3    3    0    0 -8.0069284922e+00 +4.3652693243e+00 +1.9197013467e+01 2.1327201767e+01 1.7770000000e+00 0.0000e+00 -1.0000e+00
       22  1    3    3    0    0 +4.1392682677e+01 -3.2191999434e+01 +2.6229947677e+02 2.6748961572e+02 0.0000000000e+00 0.0000e+00 -1.0000e+00
<mgrwt>
<rscale>  2 0.12500000E+03</rscale>
<asrwt>0</asrwt>
<pdfrwt beam="1">  1       21 0.51113725E-01 0.12500000E+03</pdfrwt>
<pdfrwt beam="2">  1       21 0.16527405E-02 0.12500000E+03</pdfrwt>
<totfact> 0.57634179E+06</totfact>
</mgrwt>
</event>
<event>
 6      0 +9.8758382e+01 1.25000000e+02 7.54677100e-03 1.12640300e-01
       21 -1    0    0  502  501 +0.0000000000e+00 +0.0000000000e+00 +1.7850980398e+02 1.7850980398e+02 0.0000000000e+00 0.0000e+00 -1.0000e+00
       21 -1    0    0  501  502 -0.0000000000e+00 -0.0000000000e+00 -2.1882551618e+01 2.1882551618e+01 0.0000000000e+00 0.0000e+00 -1.0000e+00
       25  2    1    2    0    0 +0.0000000000e+00 +0.0000000000e+00 +1.5662725236e+02 2.0039235560e+02 1.2500000000e+02 0.0000e+00 0.0000e+00
      -15  1    3    3    0    0 +3.1490274381e+01 +9.5164540746e+00 +8.0658687827e+01 8.7127389090e+01 1.7770000000e+00 0.0000e+00 -1.0000e+00
       15  1    3    3    0    0 -8.5028251987e+00 +1.8806111613e+01 -7.6132597718e+00 2.2070054911e+01 1.7770000000e+00 0.0000e+00 -1.0000e+00
       22  1    3    3    0    0 -2.2987449182e+01 -2.8322565688e+01 +8.3581824300e+01 9.1194911592e+01 0.0000000000e+00 0.0000e+00 -1.0000e+00
<mgrwt>
<rscale>  2 0.12500000E+03</rscale>
<asrwt>0</asrwt>
<pdfrwt beam="1">  1       21 0.26251441E-01 0.12500000E+03</pdfrwt>
<pdfrwt beam="2">  1       21 0.32180224E-02 0.12500000E+03</pdfrwt>
<totfact> 0.76761664E+06</totfact>
</mgrwt>
</event>
<event>
 6      0 +9.8758382e+01 1.25000000e+02 7.54677100e-03 1.12640300e-01
       21 -1    0    0  502  501 +0.0000000000e+00 +0.0000000000e+00 +5.5227439514e+01 5.5227439514e+01 0.0000000000e+00 0.0000e+00 -1.0000e+00
       21 -1    0    0  501  502 -0.0000000000e+00 -0.0000000000e+00 -7.0730239070e+01 7.0730239070e+01 0.0000000000e+00 0.0000e+00 -1.0000e+00
       25  2    1    2    0    0 +0.0000000000e+00 +0.0000000000e+00 -1.5502799556e+01 1.2595767858e+02 1.2500000000e+02 0.0000e+00 0.0000e+00
      -15  1    3    3    0    0 +1.2879597228e+01 -1.6511920850e+01 -3.2016971206e+01 3.8298455963e+01 1.7770000000e+00 0.0000e+00 -1.0000e+00
       15  1    3    3    0    0 +9.9759082404e+00 +4.4683401393e+01 -3.9855488491e+00 4.5990949478e+01 1.7770000000e+00 0.0000e+00 -1.0000e+00
       22  1    3    3    0    0 -2.2855505469e+01 -2.8171480543e+01 +2.0499720499e+01 4.1668273143e+01 0.0000000000e+00 0.0000e+00 -1.0000e+00
<mgrwt>
<rscale>  2 0.12500000E+03</rscale>
<asrwt>0</asrwt>
<pdfrwt beam="1">  1       21 0.81216823E-02 0.12500000E+03</pdfrwt>
<pdfrwt beam="2">  1       21 0.10401506E-01 0.12500000E+03</pdfrwt>
<totfact> 0.88819426E+06</totfact>
</mgrwt>
</event>
<event>
 6      0 +9.8758382e+01 1.25000000e+02 7.54677100e-03 1.12640300e-01
       21 -1    0    0  502  501 +0.0000000000e+00 +0.0000000000e+00 +3.0397769579e+02 3.0397769579e+02 0.0000000000e+00 0.0000e+00 1.0000e+00
       21 -1    0    0  501  502 -0.0000000000e+00 -0.0000000000e+00 -1.2850449405e+01 1.2850449405e+01 0.0000000000e+00 0.0000e+00 1.0000e+00
       25  2    1    2    0    0 +0.0000000000e+00 +0.0000000000e+00 +2.9112724638e+02 3.1682814519e+02 1.2500000000e+02 0.0000e+00 0.0000e+00
      -15  1    3    3    0    0 +1.7146968686e+01 +4.5408744019e+01 +1.8827420899e+02 1.9443844287e+02 1.7770000000e+00 0.0000e+00 -1.0000e+00
       15  1    3    3    0    0 +4.0238861484e+00 -1.3361207581e+01 +1.6743512545e+00 1.4165970100e+01 1.7770000000e+00 0.0000e+00 -1.0000e+00
       22  1    3    3    0    0 -2.1170854834e+01 -3.2047536438e+01 +1.0117868614e+02 1.0822373222e+02 0.0000000000e+00 0.0000e+00 -1.0000e+00
<mgrwt>
<rscale>  2 0.12500000E+03</rscale>
<asrwt>0</asrwt>
<pdfrwt beam="1">  1       21 0.44702598E-01 0.12500000E+03</pdfrwt>
<pdfrwt beam="2">  1       21 0.18897722E-02 0.12500000E+03</pdfrwt>
<totfact> 0.62055049E+06</totfact>
</mgrwt>
</event>
<event>
 6      0 +9.8758382e+01 1.25000000e+02 7.54677100e-03 1.12640300e-01
       21 -1    0    0  502  501 +0.0000000000e+00 +0.0000000000e+00 +1.5533896469e+02 1.5533896469e+02 0.0000000000e+00 0.0000e+00 1.0000e+00
       21 -1    0    0  501  502 -0.0000000000e+00 -0.0000000000e+00 -2.5146620538e+01 2.5146620538e+01 0.0000000000e+00 0.0000e+00 1.0000e+00
       25  2    1    2    0    0 +0.0000000000e+00 +0.0000000000e+00 +1.3019234416e+02 1.8048558523e+02 1.2500000000e+02 0.0000e+00 0.0000e+00
      -15  1    3    3    0    0 +1.6032266903e+01 -3.5880909316e+01 +1.7276432983e+01 4.2966336835e+01 1.7770000000e+00 0.0000e+00 -1.0000e+00
       15  1    3    3    0    0 -2.9635119165e+01 -8.8955446504e+00 +5.4205428768e+01 6.2440029144e+01 1.7770000000e+00 0.0000e+00 -1.0000e+00
       22  1    3    3    0    0 +1.3602852262e+01 +4.4776453966e+01 +5.8710482418e+01 7.5079219264e+01 0.0000000000e+00 0.0000e+00 -1.0000e+00
<mgrwt>
<rscale>  2 0.12500000E+03</rscale>
<asrwt>0</asrwt>
<pdfrwt beam="1">  1       21 0.22843965E-01 0.12500000E+03</pdfrwt>
<pdfrwt beam="2">  1       21 0.36980325E-02 0.12500000E+03</pdfrwt>
<totfact> 0.79732122E+06</totfact>
</mgrwt>
</event>
<event>
 6      0 +9.8758382e+01 1.25000000e+02 7.54677100e-03 1.12640300e-01
       21 -1    0    0  502  501 +0.0000000000e+00 +0.0000000000e+00 +3.9181597070e+02 3.9181597070e+02 0.0000000000e+00 0.0000e+00 1.0000e+00
       21 -1    0    0  501  502 -0.0000000000e+00 -0.0000000000e+00 -9.9696038246e+00 9.9696038246e+00 0.0000000000e+00 0.0000e+00 1.0000e+00
       25  2    1    2    0    0 +0.0000000000e+00 +0.0000000000e+00 +3.8184636687e+02 4.0178557452e+02 1.2500000000e+02 0.0000e+00 0.0000e+00
      -15  1    3    3    0    0 -2.2313506067e+01 +1.1836707136e+01 +2.6489077858e+01 3.6644633489e+01 1.7770000000e+00 0.0000e+00 -1.0000e+00
       15  1    3    3    0    0 +3.3150215028e+01 +2.0048610378e+01 +9.4945622786e+01 1.0256077491e+02 1.7770000000e+00 0.0000e+00 -1.0000e+00
       22  1    3    3    0    0 -1.0836708962e+01 -3.1885317514e+01 +2.6041166622e+02 2.6258016612e+02 0.0000000000e+00 0.0000e+00 -1.0000e+00
<mgrwt>
<rscale>  2 0.12500000E+03</rscale>
<asrwt>0</asrwt>
<pdfrwt beam="1">  1       21 0.57619985E-01 0.12500000E+03</pdfrwt>
<pdfrwt beam="2">  1       21 0.14661185E-02 0.12500000E+03</pdfrwt>
<totfact> 0.53491307E+06</totfact>
</mgrwt>
</event>
<event>
 6      0 +9.8758382e+01 1.25000000e+02 7.54677100e-03 1.12640300e-01
       21 -1    0    0  502  501 +0.0000000000e+00 +0.0000000000e+00 +1.4421807410e+03 1.4421807410e+03 0.0000000000e+00 0.0000e+00 1.0000e+00
       21 -1    0    0  501  502 -0.0000000000e+00 -0.0000000000e+00 -2.7085717406e+00 2.7085717406e+00 0.0000000000e+00 0.0000e+00 1.0000e+00
       25  2    1    2    0    0 +0.0000000000e+00 +0.0000000000e+00 +1.4394721693e+03 1.4448893128e+03 1.2500000000e+02 0.0000e+00 0.0000e+00
      -15  1    3    3    0    0 -1.9314275740e+01 +5.9997833859e+00 +1.0627200091e+03 1.0629139260e+03 1.7770000000e+00 0.0000e+00 -1.0000e+00
       15  1    3    3    0    0 +2.6179421870e+01 +1.8348562415e+01 +2.8522335507e+02 2.8701489836e+02 1.7770000000e+00 0.0000e+00 -1.0000e+00
       22  1    3    3    0    0 -6.8651461304e+00 -2.4348345801e+01 +9.1528802594e+01 9.4960485882e+01 0.0000000000e+00 0.0000e+00 -1.0000e+00
<mgrwt>
<rscale>  2 0.12500000E+03</rscale>
<asrwt>0</asrwt>
<pdfrwt beam="1">  1       21 0.21208487E+00 0.12500000E+03</pdfrwt>
<pdfrwt beam="2">  1       21 0.39832038E-03 0.12500000E+03</pdfrwt>
<totfact> 0.11445092E+06</totfact>
</mgrwt>
</event>
<event>
 6      0 +9.8758382e+01 1.25000000e+02 7.54677100e-03 1.12640300e-01
       21 -1    0    0  502  501 +0.0000000000e+00 +0.0000000000e+00 +1.8269088661e+01 1.8269088661e+01 0.0000000000e+00 0.0000e+00 1.0000e+00
       21 -1    0    0  501  502 -0.0000000000e+00 -0.0000000000e+00 -2.1381745266e+02 2.1381745266e+02 0.0000000000e+00 0.0000e+00 1.0000e+00
       25  2    1    2    0    0 +0.0000000000e+00 +0.0000000000e+00 -1.9554836400e+02 2.3208654133e+02 1.2500000000e+02 0.0000e+00 0.0000e+00
      -15  1    3    3    0    0 -8.5755410095e+00 -4.3432233983e+00 -3.7982275262e+01 3.9220077208e+01 1.7770000000e+00 0.0000e+00 -1.0000e+00
       15  1    3    3    0    0 +5.8373781567e+01 +1.1409057714e+01 -1.0053202508e+02 1.1682256104e+02 1.7770000000e+00 0.0000e+00 -1.0000e+00
       22  1    3    3    0    0 -4.9798240557e+01 -7.0658343157e+00 -5.7034063635e+01 7.6043903055e+01 0.0000000000e+00 0.0000e+00 -1.0000e+00
<mgrwt>
<rscale>  2 0.12500000E+03</rscale>
<asrwt>0</asrwt>
<pdfrwt beam="1">  1       21 0.26866308E-02 0.12500000E+03</pdfrwt>
<pdfrwt beam="2">  1       21 0.31443742E-01 0.12500000E+03</pdfrwt>
<totfact> 0.72357945E+06</totfact>
</mgrwt>
</event>
<event>
 6      0 +9.8758382e+01 1.25000000e+02 7.54677100e-03 1.12640300e-01
       21 -1    0    0  502  501 +0.0000000000e+00 +0.0000000000e+00 +4.9035344294e+02 4.9035344294e+02 0.0000000000e+00 0.0000e+00 -1.0000e+00
       21 -1    0    0  501  502 -0.0000000000e+00 -0.0000000000e+00 -7.9661926641e+00 7.9661926641e+00 0.0000000000e+00 0.0000e+00 -1.0000e+00
       25  2    1    2    0    0 +0.0000000000e+00 +0.0000000000e+00 +4.8238725028e+02 4.9831963561e+02 1.2500000000e+02 0.0000e+00 0.0000e+00
      -15  1    3    3    0    0 +3.1163141519e+01 -2.6282107814e+01 +2.0050687596e+02 2.0461685077e+02 1.7770000000e+00 0.0000e+00 -1.0000e+00
       15  1    3    3    0    0 -3.1789774645e+01 -1.5911842410e+01 +8.1602173237e+01 8.9027236882e+01 1.7770000000e+00 0.0000e+00 -1.0000e+00
       22  1    3    3    0    0 +6.2663312575e-01 +4.2193950224e+01 +2.0027820105e+02 2.0467554793e+02 0.0000000000e+00 0.0000e+00 -1.0000e+00
<mgrwt>
<rscale>  2 0.12500000E+03</rscale>
<asrwt>0</asrwt>
<pdfrwt beam="1">  1       21 0.72110780E-01 0.12500000E+03</pdfrwt>
<pdfrwt beam="2">  1       21 0.11714993E-02 0.12500000E+03</pdfrwt>
<totfact> 0.45451186E+06</totfact>
</mgrwt>
</event>
<event>
 6      0 +9.8758382e+01 1.25000000e+02 7.54677100e-03 1.12640300e-01
       21 -1    0    0  502  501 +0.0000000000e+00 +0.0000000000e+00 +4.2188329520e+02 4.2188329520e+02 0.0000000000e+00 0.0000e+00 -1.0000e+00
       21 -1    0    0  501  502 -0.0000000000e+00 -0.0000000000e+00 -9.2590772008e+00 9.2590772008e+00 0.0000000000e+00 0.0000e+00 -1.0000e+00
       25  2    1    2    0    0 +0.0000000000e+00 +0.0000000000e+00 +4.1262421800e+02 4.3114237240e+02 1.2500000000e+02 0.0000e+00 0.0000e+00
      -15  1    3    3    0    0 +4.2001000244e+00 +3.6997292637e+01 +6.2271166313e+01 7.2576141987e+01 1.7770000000e+00 0.0000e+00 -1.0000e+00
       15  1    3    3    0    0 -1.9077489546e+01 -1.8933063172e+00 +2.8085819785e+01 3.4051522993e+01 1.7770000000e+00 0.0000e+00 -1.0000e+00
       22  1    3    3    0    0 +1.4877389521e+01 -3.5103986320e+01 +3.2226723192e+02 3.2451470744e+02 0.0000000000e+00 0.0000e+00 -1.0000e+00
<mgrwt>
<rscale>  2 0.12500000E+03</rscale>
<asrwt>0</asrwt>
<pdfrwt beam="1">  1       21 0.62041648E-01 0.12500000E+03</pdfrwt>
<pdfrwt beam="2">  1       21 0.13616293E-02 0.12500000E+03</pdfrwt>
<totfact> 0.50873739E+06</totfact>
</mgrwt>
</event>
<event>
 6      0 +9.8758382e+01 1.25000000e+02 7.54677100e-03 1.12640300e-01
       21 -1    0    0  502  501 +0.0000000000e+00 +0.0000000000e+00 +4.0810780868e+01 4.0810780868e+01 0.0000000000e+00 0.0000e+00 -1.0000e+00
       21 -1    0    0  501  502 -0.0000000000e+00 -0.0000000000e+00 -9.5716129828e+01 9.5716129828e+01 0.0000000000e+00 0.0000e+00 -1.0000e+00
       25  2    1    2    0    0 +0.0000000000e+00 +0.0000000000e+00 -5.4905348960e+01 1.3652691070e+02 1.2500000000e+02 0.0000e+00 0.0000e+00
      -15  1    3    3    0    0 -2.9128933318e+01 -2.3068722869e+00 -2.5952570552e+01 3.9121733899e+01 1.7770000000e+00 0.0000e+00 -1.0000e+00
       15  1    3    3    0    0 +3.1518660018e+01 +2.5212169449e+01 -5.1311147959e+01 6.5307511448e+01 1.7770000000e+00 0.0000e+00 -1.0000e+00
       22  1    3    3    0    0 -2.3897266993e+00 -2.2905297162e+01 +2.2358369553e+01 3.2097665349e+01 0.0000000000e+00 0.0000e+00 -1.0000e+00
<mgrwt>
<rscale>  2 0.12500000E+03</rscale>
<asrwt>0</asrwt>
<pdfrwt beam="1">  1       21 0.60015856E-02 0.12500000E+03</pdfrwt>
<pdfrwt beam="2">  1       21 0.14075901E-01 0.12500000E+03</pdfrwt>
<totfact> 0.86939976E+06</totfact>
</mgrwt>
</event>
<event>
 6      0 +9.8758382e+01 1.25000000e+02 7.54677100e-03 1.12640300e-01
       21 -1    0    0  502  501 +0.0000000000e+00 +0.0000000000e+00 +1.5319276861e+01 1.5319276861e+01 0.0000000000e+00 0.0000e+00 1.0000e+00
       21 -1    0    0  501  502 -0.0000000000e+00 -0.0000000000e+00 -2.5498919012e+02 2.5498919012e+02 0.0000000000e+00 0.0000e+00 1.0000e+00
       25  2    1    2    0    0 +0.0000000000e+00 +0.0000000000e+00 -2.3966991326e+02 2.7030846698e+02 1.2500000000e+02 0.0000e+00 0.0000e+00
      -15  1    3    3    0    0 -2.2733252736e+01 +1.3641199806e+01 -1.6825551639e+01 3.1450596641e+01 1.7770000000e+00 0.0000e+00 -1.0000e+00
       15  1    3    3    0    0 +6.9492806193e-01 -4.6392703697e+01 -1.1537643771e+02 1.2436899127e+02 1.7770000000e+00 0.0000e+00 -1.0000e+00
       22  1    3    3    0    0 +2.2038324674e+01 +3.2751503890e+01 -1.0746792392e+02 1.1448887908e+02 0.0000000000e+00 0.0000e+00 -1.0000e+00
<mgrwt>
<rscale>  2 0.12500000E+03</rscale>
<asrwt>0</asrwt>
<pdfrwt beam="1">  1       21 0.22528349E-02 0.12500000E+03</pdfrwt>
<pdfrwt beam="2">  1       21 0.37498409E-01 0.12500000E+03</pdfrwt>
<totfact> 0.67460670E+06</totfact>
</mgrwt>
</event>
<event>
 6      0 +9.8758382e+01 1.25000000e+02 7.54677100e-03 1.12640300e-01
       21 -1    0    0  502  501 +0.0000000000e+00 +0.0000000000e+00 +2.8291936611e+02 2.8291936611e+02 0.0000000000e+00 0.0000e+00 -1.0000e+00
       21 -1    0    0  501  502 -0.0000000000e+00 -0.0000000000e+00 -1.3806937481e+01 1.3806937481e+01 0.0000000000e+00 0.0000e+00 -1.0000e+00
       25  2    1    2    0    0 +0.0000000000e+00 +0.0000000000e+00 +2.6911242863e+02 2.9672630359e+02 1.2500000000e+02 0.0000e+00 0.0000e+00
      -15  1    3    3    0    0 -7.9069439778e+00 +3.1724300725e+01 +8.3741994750e+01 8.9915685135e+01 1.7770000000e+00 0.0000e+00 -1.0000e+00
       15  1    3    3    0    0 -2.1889153921e+01 +1.1622398982e+01 +1.2176088067e+02 1.2427020966e+02 1.7770000000e+00 0.0000e+00 -1.0000e+00
       22  1    3    3    0    0 +2.9796097899e+01 -4.3346699707e+01 +6.3609553215e+01 8.2540408805e+01 0.0000000000e+00 0.0000e+00 -1.0000e+00
<mgrwt>
<rscale>  2 0.12500000E+03</rscale>
<asrwt>0</asrwt>
<pdfrwt beam="1">  1       21 0.41605785E-01 0.12500000E+03</pdfrwt>
<pdfrwt beam="2">  1       21 0.20304322E-02 0.12500000E+03</pdfrwt>
<totfact> 0.64327458E+06</totfact>
</mgrwt>
</event>
<event>
 6      0 +9.8758382e+01 1.25000000e+02 7.54677100e-03 1.12640300e-01
       21 -1    0    0  502  501 +0.0000000000e+00 +0.0000000000e+00 +2.0821506563e+01 2.0821506563e+01 0.0000000000e+00 0.0000e+00 1.0000e+00
       21 -1    0    0  501  502 -0.0000000000e+00 -0.0000000000e+00 -1.8760650139e+02 1.8760650139e+02 0.0000000000e+00 0.0000e+00 1.0000e+00
       25  2    1    2    0    0 +0.0000000000e+00 +0.0000000000e+00 -1.6678499483e+02 2.0842800795e+02 1.2500000000e+02 0.0000e+00 0.0000e+00
      -15  1    3    3    0    0 -4.4243138190e+01 -3.8212434589e+01 -7.1436804899e+01 9.2325620807e+01 1.7770000000e+00 0.0000e+00 -1.0000e+00
       15  1    3    3    0    0 +3.2539509608e-01 +1.4304056423e+01 -1.1358158019e+01 1.8354220079e+01 1.7770000000e+00 0.0000e+00 -1.0000e+00
       22  1    3    3    0    0 +4.3917743094e+01 +2.3908378166e+01 -8.3990031924e+01 9.7748167081e+01 0.0000000000e+00 0.0000e+00 -1.0000e+00
<mgrwt>
<rscale>  2 0.12500000E+03</rscale>
<asrwt>0</asrwt>
<pdfrwt beam="1">  1       21 0.30619863E-02 0.12500000E+03</pdfrwt>
<pdfrwt beam="2">  1       21 0.27589191E-01 0.12500000E+03</pdfrwt>
<totfact> 0.75606736E+06</totfact>
</mgrwt>
</event>
<event>
 6      0 +9.8758382e+01 1.25000000e+02 7.54677100e-03 1.12640300e-01
       21 -1    0    0  502  501 +0.0000000000e+00 +0.0000000000e+00 +2.7255093079e+02 2.7255093079e+02 0.0000000000e+00 0.0000e+00 -1.0000e+00
       21 -1    0    0  501  502 -0.0000000000e+00 -0.0000000000e+00 -1.4332183672e+01 1.4332183672e+01 0.0000000000e+00 0.0000e+00 -1.0000e+00
       25  2    1    2    0    0 +0.0000000000e+00 +0.0000000000e+00 +2.5821874712e+02 2.8688311446e+02 1.2500000000e+02 0.0000e+00 0.0000e+00
      -15  1    3    3    0    0 +4.1200278765e+01 +8.3437855189e+00 +8.6942931083e+01 9.6588367422e+01 1.7770000000e+00 0.0000e+00 -1.0000e+00
       15  1    3    3    0    0 +1.3664016314e+01 -1.9577217111e+01 +7.7041974390e+01 8.0675871973e+01 1.7770000000e+00 0.0000e+00 -1.0000e+00
       22  1    3    3    0    0 -5.4864295078e+01 +1.1233431592e+01 +9.4233841662e+01 1.0961887508e+02 0.0000000000e+00 0.0000e+00 -1.0000e+00
<mgrwt>
<rscale>  2 0.12500000E+03</rscale>
<asrwt>0</asrwt>
<pdfrwt beam="1">  1       21 0.40081016E-01 0.12500000E+03</pdfrwt>
<pdfrwt beam="2">  1       21 0.21076742E-02 0.12500000E+03</pdfrwt>
<totfact> 0.65475665E+06</totfact>
</mgrwt>
</event>
<event>
 6      0 +9.8758382e+01 1.25000000e+02 7.54677100e-03 1.12640300e-01
       21 -1    0    0  502  501 +0.0000000000e+00 +0.0000000000e+00 +1.0513079416e+03 1.0513079416e+03 0.0000000000e+00 0.0000e+00 -1.0000e+00
       21 -1    0    0  501  502 -0.0000000000e+00 -0.0000000000e+00 -3.7156097139e+00 3.7156097139e+00 0.0000000000e+00 0.0000e+00 -1.0000e+00
       25  2    1    2    0    0 +0.0000000000e+00 +0.0000000000e+00 +1.0475923318e+03 1.0550235513e+03 1.2500000000e+02 0.0000e+00 0.0000e+00
      -15  1    3    3    0    0 +1.6616563089e+01 +3.0044315997e+01 +6.4402462841e+02 6.4494158714e+02 1.7770000000e+00 0.0000e+00 -1.0000e+00
       15  1    3    3    0    0 -3.5398236217e+00 +1.3429600496e+00 -8.2448088323e-01 4.2627914289e+00 1.7770000000e+00 0.0000e+00 -1.0000e+00
       22  1    3    3    0    0 -1.3076739467e+01 -3.1387276046e+01 +4.0439217920e+02 4.0581916763e+02 0.0000000000e+00 0.0000e+00 -1.0000e+00
<mgrwt>
<rscale>  2 0.12500000E+03</rscale>
<asrwt>0</asrwt>
<pdfrwt beam="1">  1       21 0.15460390E+00 0.12500000E+03</pdfrwt>
<pdfrwt beam="2">  1       21 0.54641392E-03 0.12500000E+03</pdfrwt>
<totfact> 0.19600697E+06</totfact>
</mgrwt>
</event>
<event>
 6      0 +9.8758382e+01 1.25000000e+02 7.54677100e-03 1.12640300e-01
       21 -1    0    0  502  501 +0.0000000000e+00 +0.0000000000e+00 +4.3009999684e+00 4.3009999684e+00 0.0000000000e+00 0.0000e+00 -1.0000e+00
       21 -1    0    0  501  502 -0.0000000000e+00 -0.0000000000e+00 -9.0821902551e+02 9.0821902551e+02 0.0000000000e+00 0.0000e+00 -1.0000e+00
       25  2    1    2    0    0 +0.0000000000e+00 +0.0000000000e+00 -9.0391802554e+02 9.1252002548e+02 1.2500000000e+02 0.0000e+00 0.0000e+00
      -15  1    3    3    0    0 +2.1582577652e+01 +1.6942714457e+01 -1.5929600637e+02 1.6165159636e+02 1.7770000000e+00 0.0000e+00 -1.0000e+00
       15  1    3    3    0    0 +2.0876629419e+01 +2.7690178101e+01 -2.9866021180e+02 3.0067201310e+02 1.7770000000e+00 0.0000e+00 -1.0000e+00
       22  1    3    3    0    0 -4.2459207071e+01 -4.4632892559e+01 -4.4596180720e+02 4.5019641585e+02 0.0000000000e+00 0.0000e+00 -1.0000e+00
<mgrwt>
<rscale>  2 0.12500000E+03</rscale>
<asrwt>0</asrwt>
<pdfrwt beam="1">  1       21 0.63249992E-03 0.12500000E+03</pdfrwt>
<pdfrwt beam="2">  1       21 0.13356164E+00 0.12500000E+03</pdfrwt>
<totfact> 0.23994240E+06</totfact>
</mgrwt>
</event>
<event>
 6      0 +9.8758382e+01 1.25000000e+02 7.54677100e-03 1.12640300e-01
       21 -1    0    0  502  501 +0.0000000000e+00 +0.0000000000e+00 +8.2984837293e+00 8.2984837293e+00 0.0000000000e+00 0.0000e+00 1.0000e+00
       21 -1    0    0  501  502 -0.0000000000e+00 -0.0000000000e+00 -4.7071852249e+02 4.7071852249e+02 0.0000000000e+00 0.0000e+00 1.0000e+00
       25  2    1    2    0    0 +0.0000000000e+00 +0.0000000000e+00 -4.6242003877e+02 4.7901700622e+02 1.2500000000e+02 0.0000e+00 0.0000e+00
      -15  1    3    3    0    0 +2.6205155286e-01 -7.9103685299e+00 -1.1011208834e+02 1.1041047201e+02 1.7770000000e+00 0.0000e+00 -1.0000e+00
       15  1    3    3    0    0 -2.2789789623e+01 +3.1968887999e+01 -3.2016714843e+02 3.2257021712e+02 1.7770000000e+00 0.0000e+00 -1.0000e+00
       22  1    3    3    0    0 +2.2527738070e+01 -2.4058519469e+01 -3.2140802108e+01 4.6036317203e+01 0.0000000000e+00 0.0000e+00 -1.0000e+00
<mgrwt>
<rscale>  2 0.12500000E+03</rscale>
<asrwt>0</asrwt>
<pdfrwt beam="1">  1       21 0.12203652E-02 0.12500000E+03</pdfrwt>
<pdfrwt beam="2">  1       21 0.69223315E-01 0.12500000E+03</pdfrwt>
<totfact> 0.46929070E+06</totfact>
</mgrwt>
</event>
<event>
 6      0 +9.8758382e+01 1.25000000e+02 7.54677100e-03 1.12640300e-01
       21 -1    0    0  502  501 +0.0000000000e+00 +0.0000000000e+00 +5.4394215649e+02 5.4394215649e+02 0.0000000000e+00 0.0000e+00 -1.0000e+00
       21 -1    0    0  501  502 -0.0000000000e+00 -0.0000000000e+00 -7.1813702126e+00 7.1813702126e+00 0.0000000000e+00 0.0000e+00 -1.0000e+00
       25  2    1    2    0    0 +0.0000000000e+00 +0.0000000000e+00 +5.3676078628e+02 5.5112352670e+02 1.2500000000e+02 0.0000e+00 0.0000e+00
      -15  1    3    3    0    0 -1.3370774310e+01 -4.0783125412e+00 +8.1693566260e+00 1.6288227515e+01 1.7770000000e+00 0.0000e+00 -1.0000e+00
       15  1    3    3    0    0 +1.0812168743e+01 -9.6885762968e+00 +1.4644319032e+01 2.0697471162e+01 1.7770000000e+00 0.0000e+00 -1.0000e+00
       22  1    3    3    0    0 +2.5586055674e+00 +1.3766888838e+01 +5.1394711072e+02 5.1413782813e+02 0.0000000000e+00 0.0000e+00 -1.0000e+00
<mgrwt>
<rscale>  2 0.12500000E+03</rscale>
<asrwt>0</asrwt>
<pdfrwt beam="1">  1       21 0.79991466E-01 0.12500000E+03</pdfrwt>
<pdfrwt beam="2">  1       21 0.10560842E-02 0.12500000E+03</pdfrwt>
<totfact> 0.41719029E+06</totfact>
</mgrwt>
</event>
<event>
 6      0 +9.8758382e+01 1.25000000e+02 7.54677100e-03 1.12640300e-01
       21 -1    0    0  502  501 +0.0000000000e+00 +0.0000000000e+00 +9.9559145622e+01 9.9559145622e+01 0.0000000000e+00 0.0000e+00 -1.0000e+00
       21 -1    0    0  501  502 -0.0000000000e+00 -0.0000000000e+00 -3.9235471293e+01 3.9235471293e+01 0.0000000000e+00 0.0000e+00 -1.0000e+00
       25  2    1    2    0    0 +0.0000000000e+00 +0.0000000000e+00 +6.0323674329e+01 1.3879461691e+02 1.2500000000e+02 0.0000e+00 0.0000e+00
      -15  1    3    3    0    0 +2.3018596779e+01 +6.2259815078e+00 -2.0246199369e+01 3.1331852184e+01 1.7770000000e+00 0.0000e+00 -1.0000e+00
       15  1    3    3    0    0 +1.1165130279e+01 -1.1873937638e+01 -3.2946348404e+00 1.6723124018e+01 1.7770000000e+00 0.0000e+00 -1.0000e+00
       22  1    3    3    0    0 -3.4183727058e+01 +5.6479561305e+00 +8.3864508541e+01 9.0739640714e+01 0.0000000000e+00 0.0000e+00 -1.0000e+00
<mgrwt>
<rscale>  2 0.12500000E+03</rscale>
<asrwt>0</asrwt>
<pdfrwt beam="1">  1       21 0.14641051E-01 0.12500000E+03</pdfrwt>
<pdfrwt beam="2">  1       21 0.57699223E-02 0.12500000E+03</pdfrwt>
<totfact> 0.86548430E+06</totfact>
</mgrwt>
</event>
<event>
 6      0 +9.8758382e+01 1.25000000e+02 7.54677100e-03 1.12640300e-01
       21 -1    0    0  502  501 +0.0000000000e+00 +0.0000000000e+00 +5.7213136395e+02 5.7213136395e+02 0.0000000000e+00 0.0000e+00 -1.0000e+00
       21 -1    0    0  501  502 -0.0000000000e+00 -0.0000000000e+00 -6.8275403975e+00 6.8275403975e+00 0.0000000000e+00 0.0000e+00 -1.0000e+00
       25  2    1    2    0    0 +0.0000000000e+00 +0.0000000000e+00 +5.6530382355e+02 5.7895890434e+02 1.2500000000e+02 0.0000e+00 0.0000e+00
      -15  1    3    3    0    0 -2.4308820175e+00 -3.4632676904e+00 +2.7755542578e+02 2.7759336361e+02 1.7770000000e+00 0.0000e+00 -1.0000e+00
       15  1    3    3    0    0 -3.2886084319e+01 -2.4506860202e+01 +1.7915116304e+02 1.8379438971e+02 1.7770000000e+00 0.0000e+00 -1.0000e+00
       22  1    3    3    0    0 +3.5316966337e+01 +2.7970127893e+01 +1.0859723483e+02 1.1757115113e+02 0.0000000000e+00 0.0000e+00 -1.0000e+00
<mgrwt>
<rscale>  2 0.12500000E+03</rscale>
<asrwt>0</asrwt>
<pdfrwt beam="1">  1       21 0.84136933E-01 0.12500000E+03</pdfrwt>
<pdfrwt beam="2">  1       21 0.10040504E-02 0.12500000E+03</pdfrwt>
<totfact> 0.39879322E+06</totfact>
</mgrwt>
</event>
<event>
 6      0 +9.8758382e+01 1.25000000e+02 7.54677100e-03 1.12640300e-01
       21 -1    0    0  502  501 +0.0000000000e+00 +0.0000000000e+00 +9.9311564671e+00 9.9311564671e+00 0.0000000000e+00 0.0000e+00 -1.0000e+00
       21 -1    0    0  501  502 -0.0000000000e+00 -0.0000000000e+00 -3.9333284225e+02 3.9333284225e+02 0.0000000000e+00 0.0000e+00 -1.0000e+00
       25  2    1    2    0    0 +0.0000000000e+00 +0.0000000000e+00 -3.8340168578e+02 4.0326399871e+02 1.2500000000e+02 0.0000e+00 0.0000e+00
      -15  1    3    3    0    0 +4.0619895736e+01 -1.1931197162e+01 -1.4150793392e+02 1.4771588434e+02 1.7770000000e+00 0.0000e+00 -1.0000e+00
       15  1    3    3    0    0 -3.0573449729e+01 +1.5998435225e+01 -2.4225202808e+02 2.4470367507e+02 1.7770000000e+00 0.0000e+00 -1.0000e+00
       22  1    3    3    0    0 -1.0046446007e+01 -4.0672380640e+00 +3.5827617141e-01 1.0844439343e+01 0.0000000000e+00 0.0000e+00 -1.0000e+00
<mgrwt>
<rscale>  2 0.12500000E+03</rscale>
<asrwt>0</asrwt>
<pdfrwt beam="1">  1       21 0.14604640E-02 0.12500000E+03</pdfrwt>
<pdfrwt beam="2">  1       21 0.57843071E-01 0.12500000E+03</pdfrwt>
<totfact> 0.53355484E+06</totfact>
</mgrwt>
</event>
<event>
 6      0 +9.8758382e+01 1.25000000e+02 7.54677100e-03 1.12640300e-01
       21 -1    0    0  502  501 +0.0000000000e+00 +0.0000000000e+00 +1.3259276704e+02 1.3259276704e+02 0.0000000000e+00 0.0000e+00 -1.0000e+00
       21 -1    0    0  501  502 -0.0000000000e+00 -0.0000000000e+00 -2.9460505932e+01 2.9460505932e+01 0.0000000000e+00 0.0000e+00 -1.0000e+00
       25  2    1    2    0    0 +0.0000000000e+00 +0.0000000000e+00 +1.0313226111e+02 1.6205327297e+02 1.2500000000e+02 0.0000e+00 0.0000e+00
      -15  1    3    3    0    0 +1.7320997852e+01 -2.3459645228e+01 +1.1925910139e+00 2.9239560927e+01 1.7770000000e+00 0.0000e+00 -1.0000e+00
       15  1    3    3    0    0 -1.7399639633e+01 -2.7893133657e+01 +4.9228174488e+01 5.9222844047e+01 1.7770000000e+00 0.0000e+00 -1.0000e+00
       22  1    3    3    0    0 +7.8641780995e-02 +5.1352778886e+01 +5.2711495613e+01 7.3590868004e+01 0.0000000000e+00 0.0000e+00 -1.0000e+00
<mgrwt>
<rscale>  2 0.12500000E+03</rscale>
<asrwt>0</asrwt>
<pdfrwt beam="1">  1       21 0.19498936E-01 0.12500000E+03</pdfrwt>
<pdfrwt beam="2">  1       21 0.43324274E-02 0.12500000E+03</pdfrwt>
<totfact> 0.82644632E+06</totfact>
</mgrwt>
</event>
<event>
 6      0 +9.8758382e+01 1.25000000e+02 7.54677100e-03 1.12640300e-01
       21 -1    0    0  502  501 +0.0000000000e+00 +0.0000000000e+00 +7.8924681852e+00 7.8924681852e+00 0.0000000000e+00 0.0000e+00 1.0000e+00
       21 -1    0    0  501  502 -0.0000000000e+00 -0.0000000000e+00 -4.9493389246e+02 4.9493389246e+02 0.0000000000e+00 0.0000e+00 1.0000e+00
       25  2    1    2    0    0 +0.0000000000e+00 +0.0000000000e+00 -4.8704142427e+02 5.0282636064e+02 1.2500000000e+02 0.0000e+00 0.0000e+00
      -15  1    3    3    0    0 +2.6052783986e+01 -9.8709233133e+00 -5.7557679569e+01 6.3970515762e+01 1.7770000000e+00 0.0000e+00 -1.0000e+00
       15  1    3    3    0    0 -2.1358111753e+01 -1.0165093637e+01 -4.0944810387e+02 4.1013461883e+02 1.7770000000e+00 0.0000e+00 -1.0000e+00
       22  1    3    3    0    0 -4.6946722325e+00 +2.0036016950e+01 -2.0035640834e+01 2.8721226058e+01 0.0000000000e+00 0.0000e+00 -1.0000e+00
<mgrwt>
<rscale>  2 0.12500000E+03</rscale>
<asrwt>0</asrwt>
<pdfrwt beam="1">  1       21 0.11606568E-02 0.12500000E+03</pdfrwt>
<pdfrwt beam="2">  1       21 0.72784411E-01 0.12500000E+03</pdfrwt>
<totfact> 0.45116314E+06</totfact>
</mgrwt>
</event>
<event>
 6      0 +9.8758382e+01 1.25000000e+02 7.54677100e-03 1.12640300e-01
       21 -1    0    0  502  501 +0.0000000000e+00 +0.0000000000e+00 +5.2886533901e+01 5.2886533901e+01 0.0000000000e+00 0.0000e+00 1.0000e+00
       21 -1    0    0  501  502 -0.0000000000e+00 -0.0000000000e+00 -7.3860956880e+01 7.3860956880e+01 0.0000000000e+00 0.0000e+00 1.0000e+00
       25  2    1    2    0    0 +0.0000000000e+00 +0.0000000000e+00 -2.0974422980e+01 1.2674749078e+02 1.2500000000e+02 0.0000e+00 0.0000e+00
      -15  1    3    3    0    0 +1.1737344281e+00 -2.1462702414e+01 -2.8920361092e+01 3.6077281800e+01 1.7770000000e+00 0.0000e+00 -1.0000e+00
       15  1    3    3    0    0 +2.7173417607e+01 -2.4119692390e+01 +6.6273761965e+00 3.6976127835e+01 1.7770000000e+00 0.0000e+00 -1.0000e+00
       22  1    3    3    0    0 -2.8347152035e+01 +4.5582394803e+01 +1.3185619158e+00 5.3694081146e+01 0.0000000000e+00 0.0000e+00 -1.0000e+00
<mgrwt>
<rscale>  2 0.12500000E+03</rscale>
<asrwt>0</asrwt>
<pdfrwt beam="1">  1       21 0.77774316E-02 0.12500000E+03</pdfrwt>
<pdfrwt beam="2">  1       21 0.10861905E-01 0.12500000E+03</pdfrwt>
<totfact> 0.88678116E+06</totfact>
</mgrwt>
</event>
<event>
 6      0 +9.8758382e+01 1.25000000e+02 7.54677100e-03 1.12640300e-01
       21 -1    0    0  502  501 +0.0000000000e+00 +0.0000000000e+00 +2.9006983775e+01 2.9006983775e+01 0.0000000000e+00 0.0000e+00 1.0000e+00
       21 -1    0    0  501  502 -0.0000000000e+00 -0.0000000000e+00 -1.3466584566e+02 1.3466584566e+02 0.0000000000e+00 0.0000e+00 1.0000e+00
       25  2    1    2    0    0 +0.0000000000e+00 +0.0000000000e+00 -1.0565886188e+02 1.6367282943e+02 1.2500000000e+02 0.0000e+00 0.0000e+00
      -15  1    3    3    0    0 +3.0601675604e+01 +3.7218943620e+01 -2.9958909262e+01 5.6766242496e+01 1.7770000000e+00 0.0000e+00 -1.0000e+00
       15  1    3    3    0    0 +1.4943076043e+01 -2.2732321967e+01 -2.2109628611e+01 3.5100532617e+01 1.7770000000e+00 0.0000e+00 -1.0000e+00
       22  1    3    3    0    0 -4.5544751647e+01 -1.4486621652e+01 -5.3590324008e+01 7.1806054319e+01 0.0000000000e+00 0.0000e+00 -1.0000e+00
<mgrwt>
<rscale>  2 0.12500000E+03</rscale>
<asrwt>0</asrwt>
<pdfrwt beam="1">  1       21 0.42657329E-02 0.12500000E+03</pdfrwt>
<pdfrwt beam="2">  1       21 0.19803801E-01 0.12500000E+03</pdfrwt>
<totfact> 0.82381556E+06</totfact>
</mgrwt>
</event>
<event>
 6      0 +9.8758382e+01 1.25000000e+02 7.54677100e-03 1.12640300e-01
       21 -1    0    0  502  501 +0.0000000000e+00 +0.0000000000e+00 +7.2914586679e+00 7.2914586679e+00 0.0000000000e+00 0.0000e+00 -1.0000e+00
       21 -1    0    0  501  502 -0.0000000000e+00 -0.0000000000e+00 -5.3572956769e+02 5.3572956769e+02 0.0000000000e+00 0.0000e+00 -1.0000e+00
       25  2    1    2    0    0 +0.0000000000e+00 +0.0000000000e+00 -5.2843810902e+02 5.4302102636e+02 1.2500000000e+02 0.0000e+00 0.0000e+00
      -15  1    3    3    0    0 -3.6857093204e+00 -3.8362982620e+00 +3.6365052792e-01 5.6206412657e+00 1.7770000000e+00 0.0000e+00 -1.0000e+00
       15  1    3    3    0    0 +4.6938663633e+01 -1.1445343760e+01 -3.1893777844e+02 3.2258130492e+02 1.7770000000e+00 0.0000e+00 -1.0000e+00
       22  1    3    3    0    0 -4.3252954312e+01 +1.5281642022e+01 -2.0986398103e+02 2.1481908010e+02 0.0000000000e+00 0.0000e+00 -1.0000e+00
<mgrwt>
<rscale>  2 0.12500000E+03</rscale>
<asrwt>0</asrwt>
<pdfrwt beam="1">  1       21 0.10722736E-02 0.12500000E+03</pdfrwt>
<pdfrwt beam="2">  1       21 0.78783742E-01 0.12500000E+03</pdfrwt>
<totfact> 0.42268180E+06</totfact>
</mgrwt>
</event>
<event>
 6      0 +9.8758382e+01 1.25000000e+02 7.54677100e-03 1.12640300e-01
       21 -1    0    0  502  501 +0.0000000000e+00 +0.0000000000e+00 +3.7081121904e+01 3.7081121904e+01 0.0000000000e+00 0.0000e+00 -1.0000e+00
       21 -1    0    0  501  502 -0.0000000000e+00 -0.0000000000e+00 -1.0534336070e+02 1.0534336070e+02 0.0000000000e+00 0.0000e+00 -1.0000e+00
       25  2    1    2    0    0 +0.0000000000e+00 +0.0000000000e+00 -6.8262238799e+01 1.4242448261e+02 1.2500000000e+02 0.0000e+00 0.0000e+00
      -15  1    3    3    0    0 -1.6405835675e+01 -1.2311399058e+01 -1.2311219892e+01 2.3988452538e+01 1.7770000000e+00 0.0000e+00 -1.0000e+00
       15  1    3    3    0    0 +4.3713514547e+00 -4.0738481256e+01 -4.8524584582e+01 6.3533657273e+01 1.7770000000e+00 0.0000e+00 -1.0000e+00
       22  1    3    3    0    0 +1.2034484220e+01 +5.3049880314e+01 -7.4264343225e+00 5.4902372795e+01 0.0000000000e+00 0.0000e+00 -1.0000e+00
<mgrwt>
<rscale>  2 0.12500000E+03</rscale>
<asrwt>0</asrwt>
<pdfrwt beam="1">  1       21 0.54531062E-02 0.12500000E+03</pdfrwt>
<pdfrwt beam="2">  1       21 0.15491670E-01 0.12500000E+03</pdfrwt>
<totfact> 0.85920170E+06</totfact>
</mgrwt>
</event>
<event>
 6      0 +9.8758382e+01 1.25000000e+02 7.54677100e-03 1.12640300e-01
       21 -1    0    0  502  501 +0.0000000000e+00 +0.0000000000e+00 +4.8781621013e+01 4.8781621013e+01 0.0000000000e+00 0.0000e+00 -1.0000e+00
       21 -1    0    0  501  502 -0.0000000000e+00 -0.0000000000e+00 -8.0076264767e+01 8.0076264767e+01 0.0000000000e+00 0.0000e+00 -1.0000e+00
       25  2    1    2    0    0 +0.0000000000e+00 +0.0000000000e+00 -3.1294643754e+01 1.2885788578e+02 1.2500000000e+02 0.0000e+00 0.0000e+00
      -15  1    3    3    0    0 +4.7819500480e+01 +2.1601851593e+01 -2.7967736405e+00 5.2576841767e+01 1.7770000000e+00 0.0000e+00 -1.0000e+00
       15  1    3    3    0    0 +8.1914926191e-01 +1.0931214232e+01 +2.0000948022e-01 1.1106762935e+01 1.7770000000e+00 0.0000e+00 -1.0000e+00
       22  1    3    3    0    0 -4.8638649742e+01 -3.2533065826e+01 -2.8697879594e+01 6.5174281078e+01 0.0000000000e+00 0.0000e+00 -1.0000e+00
<mgrwt>
<rscale>  2 0.12500000E+03</rscale>
<asrwt>0</asrwt>
<pdfrwt beam="1">  1       21 0.71737678E-02 0.12500000E+03</pdfrwt>
<pdfrwt beam="2">  1       21 0.11775921E-01 0.12500000E+03</pdfrwt>
<totfact> 0.88304881E+06</totfact>
</mgrwt>
</event>
<event>
 6      0 +9.8758382e+01 1.25000000e+02 7.54677100e-03 1.12640300e-01
       21 -1    0    0  502  501 +0.0000000000e+00 +0.0000000000e+00 +2.0059801956e+01 2.0059801956e+01 0.0000000000e+00 0.0000e+00 -1.0000e+00
       21 -1    0    0  501  502 -0.0000000000e+00 -0.0000000000e+00 -1.9473023755e+02 1.9473023755e+02 0.0000000000e+00 0.0000e+00 -1.0000e+00
       25  2    1    2    0    0 +0.0000000000e+00 +0.0000000000e+00 -1.7467043559e+02 2.1479003950e+02 1.2500000000e+02 0.0000e+00 0.0000e+00
      -15  1    3    3    0    0 +9.0896884981e+00 -4.6922091547e+01 -8.7154324136e+01 9.9414984066e+01 1.7770000000e+00 0.0000e+00 -1.0000e+00
       15  1    3    3    0    0 +1.7772491870e+01 +4.0094889888e+01 -6.9885988733e+01 8.2526788455e+01 1.7770000000e+00 0.0000e+00 -1.0000e+00
       22  1    3    3    0    0 -2.6862180368e+01 +6.8272016592e+00 -1.7630122727e+01 3.2848266987e+01 0.0000000000e+00 0.0000e+00 -1.0000e+00
<mgrwt>
<rscale>  2 0.12500000E+03</rscale>
<asrwt>0</asrwt>
<pdfrwt beam="1">  1       21 0.29499710E-02 0.12500000E+03</pdfrwt>
<pdfrwt beam="2">  1       21 0.28636799E-01 0.12500000E+03</pdfrwt>
<totfact> 0.74713053E+06</totfact>
</mgrwt>
</event>
<event>
 6      0 +9.8758382e+01 1.25000000e+02 7.54677100e-03 1.12640300e-01
       21 -1    0    0  502  501 +0.0000000000e+00 +0.0000000000e+00 +1.1518176816e+02 1.1518176816e+02 0.0000000000e+00 0.0000e+00 1.0000e+00
       21 -1    0    0  501  502 -0.0000000000e+00 -0.0000000000e+00 -3.3913787420e+01 3.3913787420e+01 0.0000000000e+00 0.0000e+00 1.0000e+00
       25  2    1    2    0    0 +0.0000000000e+00 +0.0000000000e+00 +8.1267980741e+01 1.4909555558e+02 1.2500000000e+02 0.0000e+00 0.0000e+00
      -15  1    3    3    0    0 +3.2983083954e+00 +1.2391962208e+01 +6.4018312517e+00 1.4442324536e+01 1.7770000000e+00 0.0000e+00 -1.0000e+00
       15  1    3    3    0    0 +1.8350867830e+01 +3.1450880432e+01 +7.7540891282e+01 8.5683486040e+01 1.7770000000e+00 0.0000e+00 -1.0000e+00
       22  1    3    3    0    0 -2.1649176226e+01 -4.3842842641e+01 -2.6747417927e+00 4.8969745004e+01 0.0000000000e+00 0.0000e+00 -1.0000e+00
<mgrwt>
<rscale>  2 0.12500000E+03</rscale>
<asrwt>0</asrwt>
<pdfrwt beam="1">  1       21 0.16938495E-01 0.12500000E+03</pdfrwt>
<pdfrwt beam="2">  1       21 0.49873217E-02 0.12500000E+03</pdfrwt>
<totfact> 0.84777444E+06</totfact>
</mgrwt>
</event>
<event>
 6      0 +9.8758382e+01 1.25000000e+02 7.54677100e-03 1.12640300e-01
       21 -1    0    0  502  501 +0.0000000000e+00 +0.0000000000e+00 +2.4503371864e+01 2.4503371864e+01 0.0000000000e+00 0.0000e+00 1.0000e+00
       21 -1    0    0  501  502 -0.0000000000e+00 -0.0000000000e+00 -1.5941683543e+02 1.5941683543e+02 0.0000000000e+00 0.0000e+00 1.0000e+00
       25  2    1    2    0    0 +0.0000000000e+00 +0.0000000000e+00 -1.3491346357e+02 1.8392020730e+02 1.2500000000e+02 0.0000e+00 0.0000e+00
      -15  1    3    3    0    0 -1.1935842635e+01 +3.3122978934e+01 -7.5071028228e+00 3.6043174037e+01 1.7770000000e+00 0.0000e+00 -1.0000e+00
       15  1    3    3    0    0 -1.6532643316e+01 -2.5298078522e+01 -1.9513320241e+01 3.6017335656e+01 1.7770000000e+00 0.0000e+00 -1.0000e+00
       22  1    3    3    0    0 +2.8468485952e+01 -7.8249004124e+00 -1.0789304050e+02 1.1185969760e+02 0.0000000000e+00 0.0000e+00 -1.0000e+00
<mgrwt>
<rscale>  2 0.12500000E+03</rscale>
<asrwt>0</asrwt>
<pdfrwt beam="1">  1       21 0.36034370E-02 0.12500000E+03</pdfrwt>
<pdfrwt beam="2">  1       21 0.23443653E-01 0.12500000E+03</pdfrwt>
<totfact> 0.79210087E+06</totfact>
</mgrwt>
</event>
<event>
 6      0 +9.8758382e+01 1.25000000e+02 7.54677100e-03 1.12640300e-01
       21 -1    0    0  502  501 +0.0000000000e+00 +0.0000000000e+00 +4.7862862491e+01 4.7862862491e+01 0.0000000000e+00 0.0000e+00 1.0000e+00
       21 -1    0    0  501  502 -0.0000000000e+00 -0.0000000000e+00 -8.1613380327e+01 8.1613380327e+01 0.0000000000e+00 0.0000e+00 1.0000e+00
       25  2    1    2    0    0 +0.0000000000e+00 +0.0000000000e+00 -3.3750517837e+01 1.2947624282e+02 1.2500000000e+02 0.0000e+00 0.0000e+00
      -15  1    3    3    0    0 -1.1735777103e-01 -5.4677916762e+01 -1.7915370480e+01 5.7565671912e+01 1.7770000000e+00 0.0000e+00 -1.0000e+00
       15  1    3    3    0    0 +1.8529194083e+01 +3.3370925290e+01 -2.0505899337e+01 4.3365877424e+01 1.7770000000e+00 0.0000e+00 -1.0000e+00
       22  1    3    3    0    0 -1.8411836312e+01 +2.1306991472e+01 +4.6707519809e+00 2.8544693482e+01 0.0000000000e+00 0.0000e+00 -1.0000e+00
<mgrwt>
<rscale>  2 0.12500000E+03</rscale>
<asrwt>0</asrwt>
<pdfrwt beam="1">  1       21 0.70386563E-02 0.12500000E+03</pdfrwt>
<pdfrwt beam="2">  1       21 0.12001968E-01 0.12500000E+03</pdfrwt>
<totfact> 0.88193262E+06</totfact>
</mgrwt>
</event>
<event>
 6      0 +9.8758382e+01 1.25000000e+02 7.54677100e-03 1.12640300e-01
       21 -1    0    0  502  501 +0.0000000000e+00 +0.0000000000e+00 +2.5271048146e+02 2.5271048146e+02 0.0000000000e+00 0.0000e+00 -1.0000e+00
       21 -1    0    0  501  502 -0.0000000000e+00 -0.0000000000e+00 -1.5457411886e+01 1.5457411886e+01 0.0000000000e+00 0.0000e+00 -1.0000e+00
       25  2    1    2    0    0 +0.0000000000e+00 +0.0000000000e+00 +2.3725306958e+02 2.6816789335e+02 1.2500000000e+02 0.0000e+00 0.0000e+00
      -15  1    3    3    0    0 +1.2872519493e+01 -2.6479604411e+01 +3.4357861971e+01 4.5282354356e+01 1.7770000000e+00 0.0000e+00 -1.0000e+00
       15  1    3    3    0    0 -1.7820492070e+01 +4.7661959331e+01 +6.1566358354e+01 7.9892468449e+01 1.7770000000e+00 0.0000e+00 -1.0000e+00
       22  1    3    3    0    0 +4.9479725764e+00 -2.1182354921e+01 +1.4132884926e+02 1.4299307055e+02 0.0000000000e+00 0.0000e+00 -1.0000e+00
<mgrwt>
<rscale>  2 0.12500000E+03</rscale>
<asrwt>0</asrwt>
<pdfrwt beam="1">  1       21 0.37163303E-01 0.12500000E+03</pdfrwt>
<pdfrwt beam="2">  1       21 0.22731490E-02 0.12500000E+03</pdfrwt>
<totfact> 0.67722559E+06</totfact>
</mgrwt>
</event>
<event>
 6      0 +9.8758382e+01 1.25000000e+02 7.54677100e-03 1.12640300e-01
       21 -1    0    0  502  501 +0.0000000000e+00 +0.0000000000e+00 +2.8584571421e+01 2.8584571421e+01 0.0000000000e+00 0.0000e+00 -1.0000e+00
       21 -1    0    0  501  502 -0.0000000000e+00 -0.0000000000e+00 -1.3665588833e+02 1.3665588833e+02 0.0000000000e+00 0.0000e+00 -1.0000e+00
       25  2    1    2    0    0 +0.0000000000e+00 +0.0000000000e+00 -1.0807131691e+02 1.6524045975e+02 1.2500000000e+02 0.0000e+00 0.0000e+00
      -15  1    3    3    0    0 -9.0032654876e+00 +1.2368350029e+01 -5.0996636206e+01 5.3271469899e+01 1.7770000000e+00 0.0000e+00 -1.0000e+00
       15  1    3    3    0    0 +4.1550374180e+01 -3.6792818179e+01 -3.5575670426e+01 6.5946426130e+01 1.7770000000e+00 0.0000e+00 -1.0000e+00
       22  1    3    3    0    0 -3.2547108692e+01 +2.4424468150e+01 -2.1499010279e+01 4.6022563722e+01 0.0000000000e+00 0.0000e+00 -1.0000e+00
<mgrwt>
<rscale>  2 0.12500000E+03</rscale>
<asrwt>0</asrwt>
<pdfrwt beam="1">  1       21 0.42036135E-02 0.12500000E+03</pdfrwt>
<pdfrwt beam="2">  1       21 0.20096454E-01 0.12500000E+03</pdfrwt>
<totfact> 0.82127266E+06</totfact>
</mgrwt>
</event>
<event>
 6      0 +9.8758382e+01 1.25000000e+02 7.54677100e-03 1.12640300e-01
       21 -1    0    0  502  501 +0.0000000000e+00 +0.0000000000e+00 +6.6166199449e+01 6.6166199449e+01 0.0000000000e+00 0.0000e+00 1.0000e+00
       21 -1    0    0  501  502 -0.0000000000e+00 -0.0000000000e+00 -5.9036940803e+01 5.9036940803e+01 0.0000000000e+00 0.0000e+00 1.0000e+00
       25  2    1    2    0    0 +0.0000000000e+00 +0.0000000000e+00 +7.1292586463e+00 1.2520314025e+02 1.2500000000e+02 0.0000e+00 0.0000e+00
      -15  1    3    3    0    0 +9.4346618708e+00 -4.6309209344e+01 +9.8666702906e+00 4.8312158162e+01 1.7770000000e+00 0.0000e+00 -1.0000e+00
       15  1    3    3    0    0 -2.5564609435e+01 +9.6039460828e-01 -1.1264888683e+01 2.8009410194e+01 1.7770000000e+00 0.0000e+00 -1.0000e+00
       22  1    3    3    0    0 +1.6129947564e+01 +4.5348814735e+01 +8.5274770391e+00 4.8881571896e+01 0.0000000000e+00 0.0000e+00 -1.0000e+00
<mgrwt>
<rscale>  2 0.12500000E+03</rscale>
<asrwt>0</asrwt>
<pdfrwt beam="1">  1       21 0.97303234E-02 0.12500000E+03</pdfrwt>
<pdfrwt beam="2">  1       21 0.86819031E-02 0.12500000E+03</pdfrwt>
<totfact> 0.88960168E+06</totfact>
</mgrwt>
</event>
<event>
 6      0 +9.8758382e+01 1.25000000e+02 7.54677100e-03 1.12640300e-01
       21 -1    0    0  502  501 +0.0000000000e+00 +0.0000000000e+00 +3.1782825944e+02 3.1782825944e+02 0.0000000000e+00 0.0000e+00 1.0000e+00
       21 -1    0    0  501  502 -0.0000000000e+00 -0.0000000000e+00 -1.2290442665e+01 1.2290442665e+01 0.0000000000e+00 0.0000e+00 1.0000e+00
       25  2    1    2    0    0 +0.0000000000e+00 +0.0000000000e+00 +3.0553781678e+02 3.3011870211e+02 1.2500000000e+02 0.0000e+00 0.0000e+00
      -15  1    3    3    0    0 +2.9024906042e+01 -3.9239150999e+01 +1.6854407094e+02 1.7547768439e+02 1.7770000000e+00 0.0000e+00 -1.0000e+00
       15  1    3    3    0    0 -1.7060896411e+01 -7.2639685632e-01 +9.0753031317e+01 9.2362721165e+01 1.7770000000e+00 0.0000e+00 -1.0000e+00
       22  1    3    3    0    0 -1.1964009630e+01 +3.9965547855e+01 +4.6240714518e+01 6.2278296548e+01 0.0000000000e+00 0.0000e+00 -1.0000e+00
<mgrwt>
<rscale>  2 0.12500000E+03</rscale>
<asrwt>0</asrwt>
<pdfrwt beam="1">  1       21 0.46739445E-01 0.12500000E+03</pdfrwt>
<pdfrwt beam="2">  1       21 0.18074182E-02 0.12500000E+03</pdfrwt>
<totfact> 0.60610557E+06</totfact>
</mgrwt>
</event>
<event>
 6      0 +9.8758382e+01 1.25000000e+02 7.54677100e-03 1.12640300e-01
       21 -1    0    0  502  501 +0.0000000000e+00 +0.0000000000e+00 +5.1047728368e+01 5.1047728368e+01 0.0000000000e+00 0.0000e+00 -1.0000e+00
       21 -1    0    0  501  502 -0.0000000000e+00 -0.0000000000e+00 -7.6521524559e+01 7.6521524559e+01 0.0000000000e+00 0.0000e+00 -1.0000e+00
       25  2    1    2    0    0 +0.0000000000e+00 +0.0000000000e+00 -2.5473796191e+01 1.2756925293e+02 1.2500000000e+02 0.0000e+00 0.0000e+00
      -15  1    3    3    0    0 -3.3857700308e+01 -2.6419522227e+00 +1.0187097823e+01 3.5500119334e+01 1.7770000000e+00 0.0000e+00 -1.0000e+00
       15  1    3    3    0    0 -2.4782362493e+01 +6.6620479525e+00 -1.4931528188e+01 2.9743177985e+01 1.7770000000e+00 0.0000e+00 -1.0000e+00
       22  1    3    3    0    0 +5.8640062800e+01 -4.0200957299e+00 -2.0729365825e+01 6.2325955607e+01 0.0000000000e+00 0.0000e+00 -1.0000e+00
<mgrwt>
<rscale>  2 0.12500000E+03</rscale>
<asrwt>0</asrwt>
<pdfrwt beam="1">  1       21 0.75070189E-02 0.12500000E+03</pdfrwt>
<pdfrwt beam="2">  1       21 0.11253165E-01 0.12500000E+03</pdfrwt>
<totfact> 0.88533306E+06</totfact>
</mgrwt>
</event>
<event>
 6      0 +9.8758382e+01 1.25000000e+02 7.54677100e-03 1.12640300e-01
       21 -1    0    0  502  501 +0.0000000000e+00 +0.0000000000e+00 +3.7399148147e+01 3.7399148147e+01 0.0000000000e+00 0.0000e+00 1.0000e+00
       21 -1    0    0  501  502 -0.0000000000e+00 -0.0000000000e+00 -1.0444756615e+02 1.0444756615e+02 0.0000000000e+00 0.0000e+00 1.0000e+00
       25  2    1    2    0    0 +0.0000000000e+00 +0.0000000000e+00 -6.7048418002e+01 1.4184671430e+02 1.2500000000e+02 0.0000e+00 0.0000e+00
      -15  1    3    3    0    0 -3.9391337199e-01 -2.1064886724e+01 +1.7062324578e+01 2.7169197069e+01 1.7770000000e+00 0.0000e+00 -1.0000e+00
       15  1    3    3    0    0 -9.8771873890e+00 -2.6989342600e+01 -3.2212349768e+01 4.3206210795e+01 1.7770000000e+00 0.0000e+00 -1.0000e+00
       22  1    3    3    0    0 +1.0271100761e+01 +4.8054229323e+01 -5.1898392809e+01 7.1471306430e+01 0.0000000000e+00 0.0000e+00 -1.0000e+00
<mgrwt>
<rscale>  2 0.12500000E+03</rscale>
<asrwt>0</asrwt>
<pdfrwt beam="1">  1       21 0.54998748E-02 0.12500000E+03</pdfrwt>
<pdfrwt beam="2">  1       21 0.15359936E-01 0.12500000E+03</pdfrwt>
<totfact> 0.86020454E+06</totfact>
</mgrwt>
</event>
<event>
 6      0 +9.8758382e+01 1.25000000e+02 7.54677100e-03 1.12640300e-01
       21 -1    0    0  502  501 +0.0000000000e+00 +0.0000000000e+00 +1.2837783502e+03 1.2837783502e+03 0.0000000000e+00 0.0000e+00 -1.0000e+00
       21 -1    0    0  501  502 -0.0000000000e+00 -0.0000000000e+00 -3.0427760363e+00 3.0427760363e+00 0.0000000000e+00 0.0000e+00 -1.0000e+00
       25  2    1    2    0    0 +0.0000000000e+00 +0.0000000000e+00 +1.2807355742e+03 1.2868211263e+03 1.2500000000e+02 0.0000e+00 0.0000e+00
      -15  1    3    3    0    0 -2.4879178425e+01 +1.3589355963e+01 +7.2352814943e+02 7.2408548174e+02 1.7770000000e+00 0.0000e+00 -1.0000e+00
       15  1    3    3    0    0 +2.0426543670e+01 +2.7482002388e+01 +1.7700784095e+02 1.8029819087e+02 1.7770000000e+00 0.0000e+00 -1.0000e+00
       22  1    3    3    0    0 +4.4526347546e+00 -4.1071358351e+01 +3.8019958093e+02 3.8243745079e+02 0.0000000000e+00 0.0000e+00 -1.0000e+00
<mgrwt>
<rscale>  2 0.12500000E+03</rscale>
<asrwt>0</asrwt>
<pdfrwt beam="1">  1       21 0.18879056E+00 0.12500000E+03</pdfrwt>
<pdfrwt beam="2">  1       21 0.44746796E-03 0.12500000E+03</pdfrwt>
<totfact> 0.14218520E+06</totfact>
</mgrwt>
</event>
<event>
 6      0 +9.8758382e+01 1.25000000e+02 7.54677100e-03 1.12640300e-01
       21 -1    0    0  502  501 +0.0000000000e+00 +0.0000000000e+00 +1.2264972814e+03 1.2264972814e+03 0.0000000000e+00 0.0000e+00 -1.0000e+00
       21 -1    0    0  501  502 -0.0000000000e+00 -0.0000000000e+00 -3.1848827219e+00 3.1848827219e+00 0.0000000000e+00 0.0000e+00 -1.0000e+00
       25  2    1    2    0    0 +0.0000000000e+00 +0.0000000000e+00 +1.2233123987e+03 1.2296821641e+03 1.2500000000e+02 0.0000e+00 0.0000e+00
      -15  1    3    3    0    0 +5.9624897042e+00 +9.7587844433e+00 +5.2583613260e+02 5.2596347900e+02 1.7770000000e+00 0.0000e+00 -1.0000e+00
       15  1    3    3    0    0 -4.2445915326e+01 -2.7941895083e+01 +4.5595622985e+02 4.5878278792e+02 1.7770000000e+00 0.0000e+00 -1.0000e+00
       22  1    3    3    0    0 +3.6483425621e+01 +1.8183110639e+01 +2.4152004046e+02 2.4493590142e+02 0.0000000000e+00 0.0000e+00 -1.0000e+00
<mgrwt>
<rscale>  2 0.12500000E+03</rscale>
<asrwt>0</asrwt>
<pdfrwt beam="1">  1       21 0.18036692E+00 0.12500000E+03</pdfrwt>
<pdfrwt beam="2">  1       21 0.46836596E-03 0.12500000E+03</pdfrwt>
<totfact> 0.15382752E+06</totfact>
</mgrwt>
</event>
<event>
 6      0 +9.8758382e+01 1.25000000e+02 7.54677100e-03 1.12640300e-01
       21 -1    0    0  502  501 +0.0000000000e+00 +0.0000000000e+00 +6.8793965134e+01 6.8793965134e+01 0.0000000000e+00 0.0000e+00 -1.0000e+00
       21 -1    0    0  501  502 -0.0000000000e+00 -0.0000000000e+00 -5.6781870218e+01 5.6781870218e+01 0.0000000000e+00 0.0000e+00 -1.0000e+00
       25  2    1    2    0    0 +0.0000000000e+00 +0.0000000000e+00 +1.2012094917e+01 1.2557583535e+02 1.2500000000e+02 0.0000e+00 0.0000e+00
      -15  1    3    3    0    0 -1.4668503254e+01 -2.2127953855e+01 +2.0770377277e+01 3.3754668281e+01 1.7770000000e+00 0.0000e+00 -1.0000e+00
       15  1    3    3    0    0 +2.1457399829e+01 -1.8733991228e+01 +2.5342719723e+01 3.8167965713e+01 1.7770000000e+00 0.0000e+00 -1.0000e+00
       22  1    3    3    0    0 -6.7888965754e+00 +4.0861945083e+01 -3.4101002084e+01 5.3653201357e+01 0.0000000000e+00 0.0000e+00 -1.0000e+00
<mgrwt>
<rscale>  2 0.12500000E+03</rscale>
<asrwt>0</asrwt>
<pdfrwt beam="1">  1       21 0.10116760E-01 0.12500000E+03</pdfrwt>
<pdfrwt beam="2">  1       21 0.83502750E-02 0.12500000E+03</pdfrwt>
<totfact> 0.88889323E+06</totfact>
</mgrwt>
</event>
<event>
 6      0 +9.8758382e+01 1.25000000e+02 7.54677100e-03 1.12640300e-01
       21 -1    0    0  502  501 +0.0000000000e+00 +0.0000000000e+00 +4.9147643598e+01 4.9147643598e+01 0.0000000000e+00 0.0000e+00 1.0000e+00
       21 -1    0    0  501  502 -0.0000000000e+00 -0.0000000000e+00 -7.9479904101e+01 7.9479904101e+01 0.0000000000e+00 0.0000e+00 1.0000e+00
       25  2    1    2    0    0 +0.0000000000e+00 +0.0000000000e+00 -3.0332260503e+01 1.2862754770e+02 1.2500000000e+02 0.0000e+00 0.0000e+00
      -15  1    3    3    0    0 +3.6305560752e+01 +1.0177737860e+01 +1.3999633748e+01 4.0259502773e+01 1.7770000000e+00 0.0000e+00 -1.0000e+00
       15  1    3    3    0    0 +5.5741844634e+00 -3.0917471060e-01 +1.4409040784e+01 1.5554591179e+01 1.7770000000e+00 0.0000e+00 -1.0000e+00
       22  1    3    3    0    0 -4.1879745216e+01 -9.8685631489e+00 -5.8740935035e+01 7.2813453748e+01 0.0000000000e+00 0.0000e+00 -1.0000e+00
<mgrwt>
<rscale>  2 0.12500000E+03</rscale>
<asrwt>0</asrwt>
<pdfrwt beam="1">  1       21 0.72275947E-02 0.12500000E+03</pdfrwt>
<pdfrwt beam="2">  1       21 0.11688221E-01 0.12500000E+03</pdfrwt>
<totfact> 0.88346170E+06</totfact>
</mgrwt>
</event>
<event>
 6      0 +9.8758382e+01 1.25000000e+02 7.54677100e-03 1.12640300e-01
       21 -1    0    0  502  501 +0.0000000000e+00 +0.0000000000e+00 +7.3859481969e+01 7.3859481969e+01 0.0000000000e+00 0.0000e+00 1.0000e+00
       21 -1    0    0  501  502 -0.0000000000e+00 -0.0000000000e+00 -5.2887590000e+01 5.2887590000e+01 0.0000000000e+00 0.0000e+00 1.0000e+00
       25  2    1    2    0    0 +0.0000000000e+00 +0.0000000000e+00 +2.0971891969e+01 1.2674707197e+02 1.2500000000e+02 0.0000e+00 0.0000e+00
      -15  1    3    3    0    0 -5.1606515653e+00 -4.4014242782e+01 +5.3931118461e+01 6.9825562366e+01 1.7770000000e+00 0.0000e+00 -1.0000e+00
       15  1    3    3    0    0 +4.4897063147e+00 +3.2059594567e+01 -1.5980837498e+01 3.6145815287e+01 1.7770000000e+00 0.0000e+00 -1.0000e+00
       22  1    3    3    0    0 +6.7094525052e-01 +1.1954648214e+01 -1.6978388995e+01 2.0775694316e+01 0.0000000000e+00 0.0000e+00 -1.0000e+00
<mgrwt>
<rscale>  2 0.12500000E+03</rscale>
<asrwt>0</asrwt>
<pdfrwt beam="1">  1       21 0.10861689E-01 0.12500000E+03</pdfrwt>
<pdfrwt beam="2">  1       21 0.77775868E-02 0.12500000E+03</pdfrwt>
<totfact> 0.88678191E+06</totfact>
</mgrwt>
</event>
<event>
 6      0 +9.8758382e+01 1.25000000e+02 7.54677100e-03 1.12640300e-01
       21 -1    0    0  502  501 +0.0000000000e+00 +0.0000000000e+00 +2.4819898824e+02 2.4819898824e+02 0.0000000000e+00 0.0000e+00 -1.0000e+00
       21 -1    0    0  501  502 -0.0000000000e+00 -0.0000000000e+00 -1.5738380030e+01 1.5738380030e+01 0.0000000000e+00 0.0000e+00 -1.0000e+00
       25  2    1    2    0    0 +0.0000000000e+00 +0.0000000000e+00 +2.3246060821e+02 2.6393736827e+02 1.2500000000e+02 0.0000e+00 0.0000e+00
      -15  1    3    3    0    0 +1.7487224035e+01 +1.6341210257e+01 +5.4054657465e+00 2.4601116763e+01 1.7770000000e+00 0.0000e+00 -1.0000e+00
       15  1    3    3    0    0 -2.2380518575e+01 -2.9453393855e+01 +5.2650600958e+01 6.4371061290e+01 1.7770000000e+00 0.0000e+00 -1.0000e+00
       22  1    3    3    0    0 +4.8932945403e+00 +1.3112183598e+01 +1.7440454151e+02 1.7496519022e+02 0.0000000000e+00 0.0000e+00 -1.0000e+00
<mgrwt>
<rscale>  2 0.12500000E+03</rscale>
<asrwt>0</asrwt>
<pdfrwt beam="1">  1       21 0.36499849E-01 0.12500000E+03</pdfrwt>
<pdfrwt beam="2">  1       21 0.23144678E-02 0.12500000E+03</pdfrwt>
<totfact> 0.68244194E+06</totfact>
</mgrwt>
</event>
<event>
 6      0 +9.8758382e+01 1.25000000e+02 7.54677100e-03 1.12640300e-01
       21 -1    0    0  502  501 +0.0000000000e+00 +0.0000000000e+00 +2.8857768597e+02 2.8857768597e+02 0.0000000000e+00 0.0000e+00 1.0000e+00
       21 -1    0    0  501  502 -0.0000000000e+00 -0.0000000000e+00 -1.3536216381e+01 1.3536216381e+01 0.0000000000e+00 0.0000e+00 1.0000e+00
       25  2    1    2    0    0 +0.0000000000e+00 +0.0000000000e+00 +2.7504146959e+02 3.0211390235e+02 1.2500000000e+02 0.0000e+00 0.0000e+00
      -15  1    3    3    0    0 +9.7174752142e+00 -1.7767184690e+01 +4.2001987345e+01 4.6662906535e+01 1.7770000000e+00 0.0000e+00 -1.0000e+00
       15  1    3    3    0    0 +4.1650253386e+01 +9.6233637047e+00 +5.3353012425e+01 6.8388993266e+01 1.7770000000e+00 0.0000e+00 -1.0000e+00
       22  1    3    3    0    0 -5.1367728601e+01 +8.1438209851e+00 +1.7968646983e+02 1.8706200256e+02 0.0000000000e+00 0.0000e+00 -1.0000e+00
<mgrwt>
<rscale>  2 0.12500000E+03</rscale>
<asrwt>0</asrwt>
<pdfrwt beam="1">  1       21 0.42437891E-01 0.12500000E+03</pdfrwt>
<pdfrwt beam="2">  1       21 0.19906202E-02 0.12500000E+03</pdfrwt>
<totfact> 0.63707827E+06</totfact>
</mgrwt>
</event>
<event>
 6      0 +9.8758382e+01 1.25000000e+02 7.54677100e-03 1.12640300e-01
       21 -1    0    0  502  501 +0.0000000000e+00 +0.0000000000e+00 +7.7821590293e+00 7.7821590293e+00 0.0000000000e+00 0.0000e+00 1.0000e+00
       21 -1    0    0  501  502 -0.0000000000e+00 -0.0000000000e+00 -5.0194939288e+02 5.0194939288e+02 0.0000000000e+00 0.0000e+00 1.0000e+00
       25  2    1    2    0    0 +0.0000000000e+00 +0.0000000000e+00 -4.9416723385e+02 5.0973155191e+02 1.2500000000e+02 0.0000e+00 0.0000e+00
      -15  1    3    3    0    0 -2.0225980110e+01 +3.7712941613e+01 -2.5989856609e+02 2.6340421148e+02 1.7770000000e+00 0.0000e+00 -1.0000e+00
       15  1    3    3    0    0 -3.9645522972e+00 -4.9029362476e+01 -1.6019028561e+02 1.6758186474e+02 1.7770000000e+00 0.0000e+00 -1.0000e+00
       22  1    3    3    0    0 +2.4190532407e+01 +1.1316420862e+01 -7.4078382122e+01 7.8745475661e+01 0.0000000000e+00 0.0000e+00 -1.0000e+00
<mgrwt>
<rscale>  2 0.12500000E+03</rscale>
<asrwt>0</asrwt>
<pdfrwt beam="1">  1       21 0.11444356E-02 0.12500000E+03</pdfrwt>
<pdfrwt beam="2">  1       21 0.73816061E-01 0.12500000E+03</pdfrwt>
<totfact> 0.44610041E+06</totfact>
</mgrwt>
</event>
<event>
 6      0 +9.8758382e+01 1.25000000e+02 7.54677100e-03 1.12640300e-01
       21 -1    0    0  502  501 +0.0000000000e+00 +0.0000000000e+00 +1.1859470650e+01 1.1859470650e+01 0.0000000000e+00 0.0000e+00 1.0000e+00
       21 -1    0    0  501  502 -0.0000000000e+00 -0.0000000000e+00 -3.2937810763e+02 3.2937810763e+02 0.0000000000e+00 0.0000e+00 1.0000e+00
       25  2    1    2    0    0 +0.0000000000e+00 +0.0000000000e+00 -3.1751863698e+02 3.4123757828e+02 1.2500000000e+02 0.0000e+00 0.0000e+00
      -15  1    3    3    0    0 -1.3036839012e+01 -1.1653267112e+00 -2.1250595843e+01 2.5021245182e+01 1.7770000000e+00 0.0000e+00 -1.0000e+00
       15  1    3    3    0    0 -1.9658337207e+01 -4.7244943086e+01 -1.1827845482e+02 1.2888555184e+02 1.7770000000e+00 0.0000e+00 -1.0000e+00
       22  1    3    3    0    0 +3.2695176219e+01 +4.8410269797e+01 -1.7798958631e+02 1.8733078125e+02 0.0000000000e+00 0.0000e+00 -1.0000e+00
<mgrwt>
<rscale>  2 0.12500000E+03</rscale>
<asrwt>0</asrwt>
<pdfrwt beam="1">  1       21 0.17440395E-02 0.12500000E+03</pdfrwt>
<pdfrwt beam="2">  1       21 0.48437965E-01 0.12500000E+03</pdfrwt>
<totfact> 0.59435149E+06</totfact>
</mgrwt>
</event>
<event>
 6      0 +9.8758382e+01 1.25000000e+02 7.54677100e-03 1.12640300e-01
       21 -1    0    0  502  501 +0.0000000000e+00 +0.0000000000e+00 +4.5587559845e+01 4.5587559845e+01 0.0000000000e+00 0.0000e+00 -1.0000e+00
       21 -1    0    0  501  502 -0.0000000000e+00 -0.0000000000e+00 -8.5686753433e+01 8.5686753433e+01 0.0000000000e+00 0.0000e+00 -1.0000e+00
       25  2    1    2    0    0 +0.0000000000e+00 +0.0000000000e+00 -4.0099193588e+01 1.3127431328e+02 1.2500000000e+02 0.0000e+00 0.0000e+00
      -15  1    3    3    0    0 -2.0919469278e+01 -3.6856546803e+01 +3.2914124804e+00 4.2544334080e+01 1.7770000000e+00 0.0000e+00 -1.0000e+00
       15  1    3    3    0    0 +9.3925462539e+00 +7.0310063341e+00 +1.6802934946e+01 2.0570642358e+01 1.7770000000e+00 0.0000e+00 -1.0000e+00
       22  1    3    3    0    0 +1.1526923024e+01 +2.9825540469e+01 -6.0193541014e+01 6.8159336840e+01 0.0000000000e+00 0.0000e+00 -1.0000e+00
<mgrwt>
<rscale>  2 0.12500000E+03</rscale>
<asrwt>0</asrwt>
<pdfrwt beam="1">  1       21 0.67040530E-02 0.12500000E+03</pdfrwt>
<pdfrwt beam="2">  1       21 0.12600993E-01 0.12500000E+03</pdfrwt>
<totfact> 0.87866554E+06</totfact>
</mgrwt>
</event>
<event>
 6      0 +9.8758382e+01 1.25000000e+02 7.54677100e-03 1.12640300e-01
       21 -1    0    0  502  501 +0.0000000000e+00 +0.0000000000e+00 +1.2538075557e+01 1.2538075557e+01 0.0000000000e+00 0.0000e+00 -1.0000e+00
       21 -1    0    0  501  502 -0.0000000000e+00 -0.0000000000e+00 -3.1155100177e+02 3.1155100177e+02 0.0000000000e+00 0.0000e+00 -1.0000e+00
       25  2    1    2    0    0 +0.0000000000e+00 +0.0000000000e+00 -2.9901292621e+02 3.2408907733e+02 1.2500000000e+02 0.0000e+00 0.0000e+00
      -15  1    3    3    0    0 -3.5391966698e+01 +1.2676206491e+01 -1.6717032020e+02 1.7135446070e+02 1.7770000000e+00 0.0000e+00 -1.0000e+00
       15  1    3    3    0    0 -1.7696756759e+01 -1.3499972548e+01 -2.5644406529e+01 3.4003202405e+01 1.7770000000e+00 0.0000e+00 -1.0000e+00
       22  1    3    3    0    0 +5.3088723456e+01 +8.2376605699e-01 -1.0619819944e+02 1.1873141418e+02 0.0000000000e+00 0.0000e+00 -1.0000e+00
<mgrwt>
<rscale>  2 0.12500000E+03</rscale>
<asrwt>0</asrwt>
<pdfrwt beam="1">  1       21 0.18438349E-02 0.12500000E+03</pdfrwt>
<pdfrwt beam="2">  1       21 0.45816318E-01 0.12500000E+03</pdfrwt>
<totfact> 0.61260404E+06</totfact>
</mgrwt>
</event>
<event>
 6      0 +9.8758382e+01 1.25000000e+02 7.54677100e-03 1.12640300e-01
       21 -1    0    0  502  501 +0.0000000000e+00 +0.0000000000e+00 +1.0518524094e+02 1.0518524094e+02 0.0000000000e+00 0.0000e+00 1.0000e+00
       21 -1    0    0  501  502 -0.0000000000e+00 -0.0000000000e+00 -3.7136864116e+01 3.7136864116e+01 0.0000000000e+00 0.0000e+00 1.0000e+00
       25  2    1    2    0    0 +0.0000000000e+00 +0.0000000000e+00 +6.8048376828e+01 1.4232210506e+02 1.2500000000e+02 0.0000e+00 0.0000e+00
      -15  1    3    3    0    0 +1.5857216084e+01 -4.9815796792e+01 +1.9868968496e+01 5.5955326378e+01 1.7770000000e+00 0.0000e+00 -1.0000e+00
       15  1    3    3    0    0 +1.7698884599e+01 +1.9293958288e+01 +1.5749627229e+01 3.0605813652e+01 1.7770000000e+00 0.0000e+00 -1.0000e+00
       22  1    3    3    0    0 -3.3556100683e+01 +3.0521838505e+01 +3.2429781103e+01 5.5760965030e+01 0.0000000000e+00 0.0000e+00 -1.0000e+00
<mgrwt>
<rscale>  2 0.12500000E+03</rscale>
<asrwt>0</asrwt>
<pdfrwt beam="1">  1       21 0.15468418E-01 0.12500000E+03</pdfrwt>
<pdfrwt beam="2">  1       21 0.54613036E-02 0.12500000E+03</pdfrwt>
<totfact> 0.85937946E+06</totfact>
</mgrwt>
</event>
<event>
 6      0 +9.8758382e+01 1.25000000e+02 7.54677100e-03 1.12640300e-01
       21 -1    0    0  502  501 +0.0000000000e+00 +0.0000000000e+00 +7.1266741617e+01 7.1266741617e+01 0.0000000000e+00 0.0000e+00 -1.0000e+00
       21 -1    0    0  501  502 -0.0000000000e+00 -0.0000000000e+00 -5.4811682299e+01 5.4811682299e+01 0.0000000000e+00 0.0000e+00 -1.0000e+00
       25  2    1    2    0    0 +0.0000000000e+00 +0.0000000000e+00 +1.6455059318e+01 1.2607842392e+02 1.2500000000e+02 0.0000e+00 0.0000e+00
      -15  1    3    3    0    0 +1.5427171357e+00 -1.9258342889e+01 -1.0038253668e+01 2.1844633499e+01 1.7770000000e+00 0.0000e+00 -1.0000e+00
       15  1    3    3    0    0 +1.0483903077e+01 +3.3675450777e+01 -2.8971369142e+01 4.5677633123e+01 1.7770000000e+00 0.0000e+00 -1.0000e+00
       22  1    3    3    0    0 -1.2026620213e+01 -1.4417107888e+01 +5.5464682128e+01 5.8556157295e+01 0.0000000000e+00 0.0000e+00 -1.0000e+00
<mgrwt>
<rscale>  2 0.12500000E+03</rscale>
<asrwt>0</asrwt>
<pdfrwt beam="1">  1       21 0.10480403E-01 0.12500000E+03</pdfrwt>
<pdfrwt beam="2">  1       21 0.80605415E-02 0.12500000E+03</pdfrwt>
<totfact> 0.88797604E+06</totfact>
</mgrwt>
</event>
<event>
 6      0 +9.8758382e+01 1.25000000e+02 7.54677100e-03 1.12640300e-01
       21 -1    0    0  502  501 +0.0000000000e+00 +0.0000000000e+00 +5.4615588043e+02 5.4615588043e+02 0.0000000000e+00 0.0000e+00 -1.0000e+00
       21 -1    0    0  501  502 -0.0000000000e+00 -0.0000000000e+00 -7.1522620922e+00 7.1522620922e+00 0.0000000000e+00 0.0000e+00 -1.0000e+00
       25  2    1    2    0    0 +0.0000000000e+00 +0.0000000000e+00 +5.3900361834e+02 5.5330814252e+02 1.2500000000e+02 0.0000e+00 0.0000e+00
      -15  1    3    3    0    0 -4.9702202338e+01 -3.1836833728e+00 +1.9482140418e+02 2.0109446043e+02 1.7770000000e+00 0.0000e+00 -1.0000e+00
       15  1    3    3    0    0 -2.2841850619e+00 +1.9946093101e+01 +9.5340636719e+01 9.7447723783e+01 1.7770000000e+00 0.0000e+00 -1.0000e+00
       22  1    3    3    0    0 +5.1986387400e+01 -1.6762409729e+01 +2.4884157752e+02 2.5476595839e+02 0.0000000000e+00 0.0000e+00 -1.0000e+00
<mgrwt>
<rscale>  2 0.12500000E+03</rscale>
<asrwt>0</asrwt>
<pdfrwt beam="1">  1       21 0.80317013E-01 0.12500000E+03</pdfrwt>
<pdfrwt beam="2">  1       21 0.10518036E-02 0.12500000E+03</pdfrwt>
<totfact> 0.41572141E+06</totfact>
</mgrwt>
</event>
<event>
 6      0 +9.8758382e+01 1.25000000e+02 7.54677100e-03 1.12640300e-01
       21 -1    0    0  502  501 +0.0000000000e+00 +0.0000000000e+00 +1.4976566107e+02 1.4976566107e+02 0.0000000000e+00 0.0000e+00 1.0000e+00
       21 -1    0    0  501  502 -0.0000000000e+00 -0.0000000000e+00 -2.6082414166e+01 2.6082414166e+01 0.0000000000e+00 0.0000e+00 1.0000e+00
       25  2    1    2    0    0 +0.0000000000e+00 +0.0000000000e+00 +1.2368324691e+02 1.7584807524e+02 1.2500000000e+02 0.0000e+00 0.0000e+00
      -15  1    3    3    0    0 -2.3225310857e+01 +4.0084238702e+01 +3.3119777152e+01 5.6975772257e+01 1.7770000000e+00 0.0000e+00 -1.0000e+00
       15  1    3    3    0    0 -1.8934687386e+01 -2.6645045288e+01 +3.9598760362e+01 5.1378014520e+01 1.7770000000e+00 0.0000e+00 -1.0000e+00
       22  1    3    3    0    0 +4.2159998243e+01 -1.3439193414e+01 +5.0964709398e+01 6.7494288466e+01 0.0000000000e+00 0.0000e+00 -1.0000e+00
<mgrwt>
<rscale>  2 0.12500000E+03</rscale>
<asrwt>0</asrwt>
<pdfrwt beam="1">  1       21 0.22024362E-01 0.12500000E+03</pdfrwt>
<pdfrwt beam="2">  1       21 0.38356492E-02 0.12500000E+03</pdfrwt>
<totfact> 0.80446335E+06</totfact>
</mgrwt>
</event>
<event>
 6      0 +9.8758382e+01 1.25000000e+02 7.54677100e-03 1.12640300e-01
       21 -1    0    0  502  501 +0.0000000000e+00 +0.0000000000e+00 +3.5199037257e+01 3.5199037257e+01 0.0000000000e+00 0.0000e+00 1.0000e+00
       21 -1    0    0  501  502 -0.0000000000e+00 -0.0000000000e+00 -1.1097604663e+02 1.1097604663e+02 0.0000000000e+00 0.0000e+00 1.0000e+00
       25  2    1    2    0    0 +0.0000000000e+00 +0.0000000000e+00 -7.5777009376e+01 1.4617508389e+02 1.2500000000e+02 0.0000e+00 0.0000e+00
      -15  1    3    3    0    0 +3.6613481637e+00 -5.6099592188e+01 -2.9482728104e+01 6.3505580065e+01 1.7770000000e+00 0.0000e+00 -1.0000e+00
       15  1    3    3    0    0 -1.4821699869e+01 +4.4074140930e+00 -9.3095121180e+00 1.8136505475e+01 1.7770000000e+00 0.0000e+00 -1.0000e+00
       22  1    3    3    0    0 +1.1160351705e+01 +5.1692178095e+01 -3.6984769152e+01 6.4532998347e+01 0.0000000000e+00 0.0000e+00 -1.0000e+00
<mgrwt>
<rscale>  2 0.12500000E+03</rscale>
<asrwt>0</asrwt>
<pdfrwt beam="1">  1       21 0.51763290E-02 0.12500000E+03</pdfrwt>
<pdfrwt beam="2">  1       21 0.16320007E-01 0.12500000E+03</pdfrwt>
<totfact> 0.85272818E+06</totfact>
</mgrwt>
</event>
<event>
 6      0 +9.8758382e+01 1.25000000e+02 7.54677100e-03 1.12640300e-01
       21 -1    0    0  502  501 +0.0000000000e+00 +0.0000000000e+00 +2.6046642199e+01 2.6046642199e+01 0.0000000000e+00 0.0000e+00 1.0000e+00
       21 -1    0    0  501  502 -0.0000000000e+00 -0.0000000000e+00 -1.4997134641e+02 1.4997134641e+02 0.0000000000e+00 0.0000e+00 1.0000e+00
       25  2    1    2    0    0 +0.0000000000e+00 +0.0000000000e+00 -1.2392470421e+02 1.7601798861e+02 1.2500000000e+02 0.0000e+00 0.0000e+00
      -15  1    3    3    0    0 -2.8632791077e+01 -8.6463255280e+00 -6.4372932111e+01 7.1004420901e+01 1.7770000000e+00 0.0000e+00 -1.0000e+00
       15  1    3    3    0    0 +3.8028318809e+01 -7.4301460047e+00 +3.8076915254e+00 3.8974560226e+01 1.7770000000e+00 0.0000e+00 -1.0000e+00
       22  1    3    3    0    0 -9.3955277321e+00 +1.6076471533e+01 -6.3359463621e+01 6.6039007478e+01 0.0000000000e+00 0.0000e+00 -1.0000e+00
<mgrwt>
<rscale>  2 0.12500000E+03</rscale>
<asrwt>0</asrwt>
<pdfrwt beam="1">  1       21 0.38303886E-02 0.12500000E+03</pdfrwt>
<pdfrwt beam="2">  1       21 0.22054609E-01 0.12500000E+03</pdfrwt>
<totfact> 0.80419964E+06</totfact>
</mgrwt>
</event>
<event>
 6      0 +9.8758382e+01 1.25000000e+02 7.54677100e-03 1.12640300e-01
       21 -1    0    0  502  501 +0.0000000000e+00 +0.0000000000e+00 +1.5344596801e+02 1.5344596801e+02 0.0000000000e+00 0.0000e+00 -1.0000e+00
       21 -1    0    0  501  502 -0.0000000000e+00 -0.0000000000e+00 -2.5456843543e+01 2.5456843543e+01 0.0000000000e+00 0.0000e+00 -1.0000e+00
       25  2    1    2    0    0 +0.0000000000e+00 +0.0000000000e+00 +1.2798912447e+02 1.7890281156e+02 1.2500000000e+02 0.0000e+00 0.0000e+00
      -15  1    3    3    0    0 +9.7747682308e+00 +4.1841648847e+01 +4.0797396493e+01 5.9277777976e+01 1.7770000000e+00 0.0000e+00 -1.0000e+00
       15  1    3    3    0    0 +2.4380009735e+01 +1.4160723916e+00 +4.0800431250e+01 4.7583852879e+01 1.7770000000e+00 0.0000e+00 -1.0000e+00
       22  1    3    3    0    0 -3.4154777965e+01 -4.3257721238e+01 +4.6391296719e+01 7.2041180695e+01 0.0000000000e+00 0.0000e+00 -1.0000e+00
<mgrwt>
<rscale>  2 0.12500000E+03</rscale>
<asrwt>0</asrwt>
<pdfrwt beam="1">  1       21 0.22565583E-01 0.12500000E+03</pdfrwt>
<pdfrwt beam="2">  1       21 0.37436535E-02 0.12500000E+03</pdfrwt>
<totfact> 0.79974622E+06</totfact>
</mgrwt>
</event>
<event>
 6      0 +9.8758382e+01 1.25000000e+02 7.54677100e-03 1.12640300e-01
       21 -1    0    0  502  501 +0.0000000000e+00 +0.0000000000e+00 +9.9665633596e+01 9.9665633596e+01 0.0000000000e+00 0.0000e+00 1.0000e+00
       21 -1    0    0  501  502 -0.0000000000e+00 -0.0000000000e+00 -3.9193550064e+01 3.9193550064e+01 0.0000000000e+00 0.0000e+00 1.0000e+00
       25  2    1    2    0    0 +0.0000000000e+00 +0.0000000000e+00 +6.0472083532e+01 1.3885918366e+02 1.2500000000e+02 0.0000e+00 0.0000e+00
      -15  1    3    3    0    0 -1.5947698775e+01 -9.4515048404e+00 -4.7820067978e-02 1.8623105426e+01 1.7770000000e+00 0.0000e+00 -1.0000e+00
       15  1    3    3    0    0 -4.2310378698e+01 -2.4056899646e+00 +3.7049348490e+01 5.6318446732e+01 1.7770000000e+00 0.0000e+00 -1.0000e+00
       22  1    3    3    0    0 +5.8258077474e+01 +1.1857194805e+01 +2.3470555111e+01 6.3917631502e+01 0.0000000000e+00 0.0000e+00 -1.0000e+00
<mgrwt>
<rscale>  2 0.12500000E+03</rscale>
<asrwt>0</asrwt>
<pdfrwt beam="1">  1       21 0.14656711E-01 0.12500000E+03</pdfrwt>
<pdfrwt beam="2">  1       21 0.57637574E-02 0.12500000E+03</pdfrwt>
<totfact> 0.86537297E+06</totfact>
</mgrwt>
</event>
<event>
 6      0 +9.8758382e+01 1.25000000e+02 7.54677100e-03 1.12640300e-01
       21 -1    0    0  502  501 +0.0000000000e+00 +0.0000000000e+00 +6.9830145553e+01 6.9830145553e+01 0.0000000000e+00 0.0000e+00 -1.0000e+00
       21 -1    0    0  501  502 -0.0000000000e+00 -0.0000000000e+00 -5.5939307717e+01 5.5939307717e+01 0.0000000000e+00 0.0000e+00 -1.0000e+00
       25  2    1    2    0    0 +0.0000000000e+00 +0.0000000000e+00 +1.3890837836e+01 1.2576945327e+02 1.2500000000e+02 0.0000e+00 0.0000e+00
      -15  1    3    3    0    0 -9.6273876867e+00 +2.5615406489e+01 -2.1870515912e+01 3.5075815579e+01 1.7770000000e+00 0.0000e+00 -1.0000e+00
       15  1    3    3    0    0 +3.7315462473e+01 -2.5402448804e+01 +4.2685044286e+01 6.2152223448e+01 1.7770000000e+00 0.0000e+00 -1.0000e+00
       22  1    3    3    0    0 -2.7688074786e+01 -2.1295768493e-01 -6.9236905385e+00 2.8541414243e+01 0.0000000000e+00 0.0000e+00 -1.0000e+00
<mgrwt>
<rscale>  2 0.12500000E+03</rscale>
<asrwt>0</asrwt>
<pdfrwt beam="1">  1       21 0.10269139E-01 0.12500000E+03</pdfrwt>
<pdfrwt beam="2">  1       21 0.82263688E-02 0.12500000E+03</pdfrwt>
<totfact> 0.88853681E+06</totfact>
</mgrwt>
</event>
<event>
 6      0 +9.8758382e+01 1.25000000e+02 7.54677100e-03 1.12640300e-01
       21 -1    0    0  502  501 +0.0000000000e+00 +0.0000000000e+00 +5.9006789805e+01 5.9006789805e+01 0.0000000000e+00 0.0000e+00 -1.0000e+00
       21 -1    0    0  501  502 -0.0000000000e+00 -0.0000000000e+00 -6.6200008726e+01 6.6200008726e+01 0.0000000000e+00 0.0000e+00 -1.0000e+00
       25  2    1    2    0    0 +0.0000000000e+00 +0.0000000000e+00 -7.1932189205e+00 1.2520679853e+02 1.2500000000e+02 0.0000e+00 0.0000e+00
      -15  1    3    3    0    0 +4.0630609958e+01 +3.5116383157e+00 +1.7135030816e+01 4.4271266972e+01 1.7770000000e+00 0.0000e+00 -1.0000e+00
       15  1    3    3    0    0 -1.7158646520e+01 -2.3845044694e+01 +1.3174025640e+01 3.2244658277e+01 1.7770000000e+00 0.0000e+00 -1.0000e+00
       22  1    3    3    0    0 -2.3471963438e+01 +2.0333406378e+01 -3.7502275376e+01 4.8690873282e+01 0.0000000000e+00 0.0000e+00 -1.0000e+00
<mgrwt>
<rscale>  2 0.12500000E+03</rscale>
<asrwt>0</asrwt>
<pdfrwt beam="1">  1       21 0.86774691E-02 0.12500000E+03</pdfrwt>
<pdfrwt beam="2">  1       21 0.97352954E-02 0.12500000E+03</pdfrwt>
<totfact> 0.88959446E+06</totfact>
</mgrwt>
</event>
<event>
 6      0 +9.8758382e+01 1.25000000e+02 7.54677100e-03 1.12640300e-01
       21 -1    0    0  502  501 +0.0000000000e+00 +0.0000000000e+00 +2.3770255139e+01 2.3770255139e+01 0.0000000000e+00 0.0000e+00 1.0000e+00
       21 -1    0    0  501  502 -0.0000000000e+00 -0.0000000000e+00 -1.6433353269e+02 1.6433353269e+02 0.0000000000e+00 0.0000e+00 1.0000e+00
       25  2    1    2    0    0 +0.0000000000e+00 +0.0000000000e+00 -1.4056327755e+02 1.8810378783e+02 1.2500000000e+02 0.0000e+00 0.0000e+00
      -15  1    3    3    0    0 +2.4097164619e+01 +1.7726733227e+01 -1.6352490607e+00 3.0012367152e+01 1.7770000000e+00 0.0000e+00 -1.0000e+00
       15  1    3    3    0    0 -1.9619478410e+01 -2.6377271727e-01 -1.8002025847e+00 1.9783628775e+01 1.7770000000e+00 0.0000e+00 -1.0000e+00
       22  1    3    3    0    0 -4.4776862089e+00 -1.7462960510e+01 -1.3712782590e+02 1.3830779190e+02 0.0000000000e+00 0.0000e+00 -1.0000e+00
<mgrwt>
<rscale>  2 0.12500000E+03</rscale>
<asrwt>0</asrwt>
<pdfrwt beam="1">  1       21 0.34956257E-02 0.12500000E+03</pdfrwt>
<pdfrwt beam="2">  1       21 0.24166696E-01 0.12500000E+03</pdfrwt>
<totfact> 0.78581029E+06</totfact>
</mgrwt>
</event>
<event>
 6      0 +9.8758382e+01 1.25000000e+02 7.54677100e-03 1.12640300e-01
       21 -1    0    0  502  501 +0.0000000000e+00 +0.0000000000e+00 +3.5964394276e+00 3.5964394276e+00 0.0000000000e+00 0.0000e+00 -1.0000e+00
       21 -1    0    0  501  502 -0.0000000000e+00 -0.0000000000e+00 -1.0861436926e+03 1.0861436926e+03 0.0000000000e+00 0.0000e+00 -1.0000e+00
       25  2    1    2    0    0 +0.0000000000e+00 +0.0000000000e+00 -1.0825472531e+03 1.0897401320e+03 1.2500000000e+02 0.0000e+00 0.0000e+00
      -15  1    3    3    0    0 +1.6259785796e+01 +4.6293147131e+00 -3.3113461912e+01 3.7221905884e+01 1.7770000000e+00 0.0000e+00 -1.0000e+00
       15  1    3    3    0    0 +3.1682012860e+01 +3.1937042768e+00 -3.9771412882e+02 3.9899077142e+02 1.7770000000e+00 0.0000e+00 -1.0000e+00
       22  1    3    3    0    0 -4.7941798655e+01 -7.8230189900e+00 -6.5171965900e+02 6.5352745131e+02 0.0000000000e+00 0.0000e+00 -1.0000e+00
<mgrwt>
<rscale>  2 0.12500000E+03</rscale>
<asrwt>0</asrwt>
<pdfrwt beam="1">  1       21 0.52888805E-03 0.12500000E+03</pdfrwt>
<pdfrwt beam="2">  1       21 0.15972704E+00 0.12500000E+03</pdfrwt>
<totfact> 0.18672732E+06</totfact>
</mgrwt>
</event>
<event>
 6      0 +9.8758382e+01 1.25000000e+02 7.54677100e-03 1.12640300e-01
       21 -1    0    0  502  501 +0.0000000000e+00 +0.0000000000e+00 +1.5098192428e+01 1.5098192428e+01 0.0000000000e+00 0.0000e+00 -1.0000e+00
       21 -1    0    0  501  502 -0.0000000000e+00 -0.0000000000e+00 -2.5872302388e+02 2.5872302388e+02 0.0000000000e+00 0.0000e+00 -1.0000e+00
       25  2    1    2    0    0 +0.0000000000e+00 +0.0000000000e+00 -2.4362483145e+02 2.7382121631e+02 1.2500000000e+02 0.0000e+00 0.0000e+00
      -15  1    3    3    0    0 -2.1876259747e+01 +3.2190912181e+01 -4.1055278755e+01 5.6599639666e+01 1.7770000000e+00 0.0000e+00 -1.0000e+00
       15  1    3    3    0    0 -5.9990240644e+00 +1.1350631222e+01 -1.1347786799e+02 1.1421562665e+02 1.7770000000e+00 0.0000e+00 -1.0000e+00
       22  1    3    3    0    0 +2.7875283812e+01 -4.3541543403e+01 -8.9091684691e+01 1.0300594998e+02 0.0000000000e+00 0.0000e+00 -1.0000e+00
<mgrwt>
<rscale>  2 0.12500000E+03</rscale>
<asrwt>0</asrwt>
<pdfrwt beam="1">  1       21 0.22203225E-02 0.12500000E+03</pdfrwt>
<pdfrwt beam="2">  1       21 0.38047502E-01 0.12500000E+03</pdfrwt>
<totfact> 0.67033801E+06</totfact>
</mgrwt>
</event>
<event>
 6      0 +9.8758382e+01 1.25000000e+02 7.54677100e-03 1.12640300e-01
       21 -1    0    0  502  501 +0.0000000000e+00 +0.0000000000e+00 +1.7741346839e+02 1.7741346839e+02 0.0000000000e+00 0.0000e+00 -1.0000e+00
       21 -1    0    0  501  502 -0.0000000000e+00 -0.0000000000e+00 -2.2017775964e+01 2.2017775964e+01 0.0000000000e+00 0.0000e+00 -1.0000e+00
       25  2    1    2    0    0 +0.0000000000e+00 +0.0000000000e+00 +1.5539569242e+02 1.9943124435e+02 1.2500000000e+02 0.0000e+00 0.0000e+00
      -15  1    3    3    0    0 +1.1716995839e+01 +4.4172306217e+01 +6.5640449442e+01 8.0001918477e+01 1.7770000000e+00 0.0000e+00 -1.0000e+00
       15  1    3    3    0    0 -2.4999905684e+00 +1.5628290009e+01 +3.2187510800e+01 3.5912212156e+01 1.7770000000e+00 0.0000e+00 -1.0000e+00
       22  1    3    3    0    0 -9.2170052706e+00 -5.9800596227e+01 +5.7567732174e+01 8.3517113712e+01 0.0000000000e+00 0.0000e+00 -1.0000e+00
<mgrwt>
<rscale>  2 0.12500000E+03</rscale>
<asrwt>0</asrwt>
<pdfrwt beam="1">  1       21 0.26090215E-01 0.12500000E+03</pdfrwt>
<pdfrwt beam="2">  1       21 0.32379083E-02 0.12500000E+03</pdfrwt>
<totfact> 0.76901951E+06</totfact>
</mgrwt>
</event>
<event>
 6      0 +9.8758382e+01 1.25000000e+02 7.54677100e-03 1.12640300e-01
       21 -1    0    0  502  501 +0.0000000000e+00 +0.0000000000e+00 +1.1099459853e+02 1.1099459853e+02 0.0000000000e+00 0.0000e+00 1.0000e+00
       21 -1    0    0  501  502 -0.0000000000e+00 -0.0000000000e+00 -3.5193154008e+01 3.5193154008e+01 0.0000000000e+00 0.0000e+00 1.0000e+00
       25  2    1    2    0    0 +0.0000000000e+00 +0.0000000000e+00 +7.5801444519e+01 1.4618775253e+02 1.2500000000e+02 0.0000e+00 0.0000e+00
      -15  1    3    3    0    0 +3.2659668395e-01 +3.1168056461e+01 +4.9459978530e+00 3.1609730032e+01 1.7770000000e+00 0.0000e+00 -1.0000e+00
       15  1    3    3    0    0 +3.2436514062e+01 +1.2718833870e+01 +2.2453847188e+01 4.1487698924e+01 1.7770000000e+00 0.0000e+00 -1.0000e+00
       22  1    3    3    0    0 -3.2763110746e+01 -4.3886890331e+01 +4.8401599483e+01 7.3090323581e+01 0.0000000000e+00 0.0000e+00 -1.0000e+00
<mgrwt>
<rscale>  2 0.12500000E+03</rscale>
<asrwt>0</asrwt>
<pdfrwt beam="1">  1       21 0.16322735E-01 0.12500000E+03</pdfrwt>
<pdfrwt beam="2">  1       21 0.51754638E-02 0.12500000E+03</pdfrwt>
<totfact> 0.85270654E+06</totfact>
</mgrwt>
</event>
<event>
 6      0 +9.8758382e+01 1.25000000e+02 7.54677100e-03 1.12640300e-01
       21 -1    0    0  502  501 +0.0000000000e+00 +0.0000000000e+00 +9.0631170524e+00 9.0631170524e+00 0.0000000000e+00 0.0000e+00 1.0000e+00
       21 -1    0    0  501  502 -0.0000000000e+00 -0.0000000000e+00 -4.3100513625e+02 4.3100513625e+02 0.0000000000e+00 0.0000e+00 1.0000e+00
       25  2    1    2    0    0 +0.0000000000e+00 +0.0000000000e+00 -4.2194201920e+02 4.4006825330e+02 1.2500000000e+02 0.0000e+00 0.0000e+00
      -15  1    3    3    0    0 +4.7881812492e+01 +1.0940848406e+01 -1.8366408453e+02 1.9012633644e+02 1.7770000000e+00 0.0000e+00 -1.0000e+00
       15  1    3    3    0    0 +8.2104754624e+00 +1.2140161122e+01 -5.0108865257e+01 5.2238410444e+01 1.7770000000e+00 0.0000e+00 -1.0000e+00
       22  1    3    3    0    0 -5.6092287955e+01 -2.3081009528e+01 -1.8816906947e+02 1.9770350648e+02 0.0000000000e+00 0.0000e+00 -1.0000e+00
<mgrwt>
<rscale>  2 0.12500000E+03</rscale>
<asrwt>0</asrwt>
<pdfrwt beam="1">  1       21 0.13328107E-02 0.12500000E+03</pdfrwt>
<pdfrwt beam="2">  1       21 0.63383137E-01 0.12500000E+03</pdfrwt>
<totfact> 0.50109537E+06</totfact>
</mgrwt>
</event>
<event>
 6      0 +9.8758382e+01 1.25000000e+02 7.54677100e-03 1.12640300e-01
       21 -1    0    0  502  501 +0.0000000000e+00 +0.0000000000e+00 +1.1614155700e+01 1.1614155700e+01 0.0000000000e+00 0.0000e+00 -1.0000e+00
       21 -1    0    0  501  502 -0.0000000000e+00 -0.0000000000e+00 -3.3633525338e+02 3.3633525338e+02 0.0000000000e+00 0.0000e+00 -1.0000e+00
       25  2    1    2    0    0 +0.0000000000e+00 +0.0000000000e+00 -3.2472109768e+02 3.4794940908e+02 1.2500000000e+02 0.0000e+00 0.0000e+00
      -15  1    3    3    0    0 -1.8673752074e+01 -1.1186400363e+01 -4.1366181395e+01 4.6777807364e+01 1.7770000000e+00 0.0000e+00 -1.0000e+00
       15  1    3    3    0    0 +3.8912477482e+01 -3.3669094808e+01 -1.2036106120e+02 1.3091115931e+02 1.7770000000e+00 0.0000e+00 -1.0000e+00
       22  1    3    3    0    0 -2.0238725408e+01 +4.4855495172e+01 -1.6299385508e+02 1.7026044240e+02 0.0000000000e+00 0.0000e+00 -1.0000e+00
<mgrwt>
<rscale>  2 0.12500000E+03</rscale>
<asrwt>0</asrwt>
<pdfrwt beam="1">  1       21 0.17079639E-02 0.12500000E+03</pdfrwt>
<pdfrwt beam="2">  1       21 0.49461072E-01 0.12500000E+03</pdfrwt>
<totfact> 0.58739467E+06</totfact>
</mgrwt>
</event>
<event>
 6      0 +9.8758382e+01 1.25000000e+02 7.54677100e-03 1.12640300e-01
       21 -1    0    0  502  501 +0.0000000000e+00 +0.0000000000e+00 +1.0626171156e+02 1.0626171156e+02 0.0000000000e+00 0.0000e+00 -1.0000e+00
       21 -1    0    0  501  502 -0.0000000000e+00 -0.0000000000e+00 -3.6760653885e+01 3.6760653885e+01 0.0000000000e+00 0.0000e+00 -1.0000e+00
       25  2    1    2    0    0 +0.0000000000e+00 +0.0000000000e+00 +6.9501057678e+01 1.4302236545e+02 1.2500000000e+02 0.0000e+00 0.0000e+00
      -15  1    3    3    0    0 -3.2944334267e+01 -2.6998196654e+01 +1.0531355945e+01 4.3912401094e+01 1.7770000000e+00 0.0000e+00 -1.0000e+00
       15  1    3    3    0    0 +4.5399897591e+01 +7.2451533714e+00 +6.0149255809e+01 7.5728024219e+01 1.7770000000e+00 0.0000e+00 -1.0000e+00
       22  1    3    3    0    0 -1.2455563324e+01 +1.9753043282e+01 -1.1795540778e+00 2.3381940134e+01 0.0000000000e+00 0.0000e+00 -1.0000e+00
<mgrwt>
<rscale>  2 0.12500000E+03</rscale>
<asrwt>0</asrwt>
<pdfrwt beam="1">  1       21 0.15626722E-01 0.12500000E+03</pdfrwt>
<pdfrwt beam="2">  1       21 0.54059785E-02 0.12500000E+03</pdfrwt>
<totfact> 0.85816298E+06</totfact>
</mgrwt>
</event>
<event>
 6      0 +9.8758382e+01 1.25000000e+02 7.54677100e-03 1.12640300e-01
       21 -1    0    0  502  501 +0.0000000000e+00 +0.0000000000e+00 +8.7711484178e+00 8.7711484178e+00 0.0000000000e+00 0.0000e+00 1.0000e+00
       21 -1    0    0  501  502 -0.0000000000e+00 -0.0000000000e+00 -4.4535217214e+02 4.4535217214e+02 0.0000000000e+00 0.0000e+00 1.0000e+00
       25  2    1    2    0    0 +0.0000000000e+00 +0.0000000000e+00 -4.3658102372e+02 4.5412332055e+02 1.2500000000e+02 0.0000e+00 0.0000e+00
      -15  1    3    3    0    0 -1.5584428345e+01 -3.2681804990e+01 -6.0535353715e+01 7.0559631254e+01 1.7770000000e+00 0.0000e+00 -1.0000e+00
       15  1    3    3    0    0 +4.0173972052e+00 -6.8910806449e+00 -3.7489239914e+00 8.9910306881e+00 1.7770000000e+00 0.0000e+00 -1.0000e+00
       22  1    3    3    0    0 +1.1567031140e+01 +3.9572885635e+01 -3.7229674608e+02 3.7457265868e+02 0.0000000000e+00 0.0000e+00 -1.0000e+00
<mgrwt>
<rscale>  2 0.12500000E+03</rscale>
<asrwt>0</asrwt>
<pdfrwt beam="1">  1       21 0.12898751E-02 0.12500000E+03</pdfrwt>
<pdfrwt beam="2">  1       21 0.65492951E-01 0.12500000E+03</pdfrwt>
<totfact> 0.48934028E+06</totfact>
</mgrwt>
</event>
<event>
 6      0 +9.8758382e+01 1.25000000e+02 7.54677100e-03 1.12640300e-01
       21 -1    0    0  502  501 +0.0000000000e+00 +0.0000000000e+00 +1.1983060326e+02 1.1983060326e+02 0.0000000000e+00 0.0000e+00 -1.0000e+00
       21 -1    0    0  501  502 -0.0000000000e+00 -0.0000000000e+00 -3.2598100099e+01 3.2598100099e+01 0.0000000000e+00 0.0000e+00 -1.0000e+00
       25  2    1    2    0    0 +0.0000000000e+00 +0.0000000000e+00 +8.7232503162e+01 1.5242870336e+02 1.2500000000e+02 0.0000e+00 0.0000e+00
      -15  1    3    3    0    0 +1.7544685360e+01 +5.9904631037e+00 -5.3665662527e-01 1.8631890992e+01 1.7770000000e+00 0.0000e+00 -1.0000e+00
       15  1    3    3    0    0 +8.2795647844e+00 +4.1325419615e+01 +1.8597048328e+01 4.6101512285e+01 1.7770000000e+00 0.0000e+00 -1.0000e+00
       22  1    3    3    0    0 -2.5824250145e+01 -4.7315882719e+01 +6.9172111460e+01 8.7695300084e+01 0.0000000000e+00 0.0000e+00 -1.0000e+00
<mgrwt>
<rscale>  2 0.12500000E+03</rscale>
<asrwt>0</asrwt>
<pdfrwt beam="1">  1       21 0.17622147E-01 0.12500000E+03</pdfrwt>
<pdfrwt beam="2">  1       21 0.47938383E-02 0.12500000E+03</pdfrwt>
<totfact> 0.84220197E+06</totfact>
</mgrwt>
</event>
<event>
 6      0 +9.8758382e+01 1.25000000e+02 7.54677100e-03 1.12640300e-01
       21 -1    0    0  502  501 +0.0000000000e+00 +0.0000000000e+00 +7.8650218055e+01 7.8650218055e+01 0.0000000000e+00 0.0000e+00 1.0000e+00
       21 -1    0    0  501  502 -0.0000000000e+00 -0.0000000000e+00 -4.9666105150e+01 4.9666105150e+01 0.0000000000e+00 0.0000e+00 1.0000e+00
       25  2    1    2    0    0 +0.0000000000e+00 +0.0000000000e+00 +2.8984112905e+01 1.2831632321e+02 1.2500000000e+02 0.0000e+00 0.0000e+00
      -15  1    3    3    0    0 -2.3563705852e+00 +3.6428616877e+01 +2.7645583850e+01 4.5826113138e+01 1.7770000000e+00 0.0000e+00 -1.0000e+00
       15  1    3    3    0    0 -3.6504531082e-01 +6.4150968668e+00 -2.9106659304e+01 2.9860376266e+01 1.7770000000e+00 0.0000e+00 -1.0000e+00
       22  1    3    3    0    0 +2.7214158960e+00 -4.2843713744e+01 +3.0445188358e+01 5.2629833801e+01 0.0000000000e+00 0.0000e+00 -1.0000e+00
<mgrwt>
<rscale>  2 0.12500000E+03</rscale>
<asrwt>0</asrwt>
<pdfrwt beam="1">  1       21 0.11566209E-01 0.12500000E+03</pdfrwt>
<pdfrwt beam="2">  1       21 0.73038389E-02 0.12500000E+03</pdfrwt>
<totfact> 0.88401667E+06</totfact>
</mgrwt>
</event>
<event>
 6      0 +9.8758382e+01 1.25000000e+02 7.54677100e-03 1.12640300e-01
       21 -1    0    0  502  501 +0.0000000000e+00 +0.0000000000e+00 +9.2093466811e+01 9.2093466811e+01 0.0000000000e+00 0.0000e+00 -1.0000e+00
       21 -1    0    0  501  502 -0.0000000000e+00 -0.0000000000e+00 -4.2416146718e+01 4.2416146718e+01 0.0000000000e+00 0.0000e+00 -1.0000e+00
       25  2    1    2    0    0 +0.0000000000e+00 +0.0000000000e+00 +4.9677320093e+01 1.3450961353e+02 1.2500000000e+02 0.0000e+00 0.0000e+00
      -15  1    3    3    0    0 +3.5726711432e+00 -1.8268048776e+01 +3.9186901733e+01 4.3419541472e+01 1.7770000000e+00 0.0000e+00 -1.0000e+00
       15  1    3    3    0    0 -3.1917070479e+01 +1.8523089164e+01 +3.6994691276e+01 5.2283545516e+01 1.7770000000e+00 0.0000e+00 -1.0000e+00
       22  1    3    3    0    0 +2.8344399336e+01 -2.5504038804e-01 -2.6504272917e+01 3.8806526541e+01 0.0000000000e+00 0.0000e+00 -1.0000e+00
<mgrwt>
<rscale>  2 0.12500000E+03</rscale>
<asrwt>0</asrwt>
<pdfrwt beam="1">  1       21 0.13543157E-01 0.12500000E+03</pdfrwt>
<pdfrwt beam="2">  1       21 0.62376686E-02 0.12500000E+03</pdfrwt>
<totfact> 0.87291796E+06</totfact>
</mgrwt>
</event>
<event>
 6      0 +9.8758382e+01 1.25000000e+02 7.54677100e-03 1.12640300e-01
       21 -1    0    0  502  501 +0.0000000000e+00 +0.0000000000e+00 +4.4998305861e+01 4.4998305861e+01 0.0000000000e+00 0.0000e+00 1.0000e+00
       21 -1    0    0  501  502 -0.0000000000e+00 -0.0000000000e+00 -8.6808823694e+01 8.6808823694e+01 0.0000000000e+00 0.0000e+00 1.0000e+00
       25  2    1    2    0    0 +0.0000000000e+00 +0.0000000000e+00 -4.1810517834e+01 1.3180712955e+02 1.2500000000e+02 0.0000e+00 0.0000e+00
      -15  1    3    3    0    0 +4.1643806247e+01 +2.7576378408e+01 -3.5039658013e+00 5.0100885722e+01 1.7770000000e+00 0.0000e+00 -1.0000e+00
       15  1    3    3    0    0 -1.0623842708e+00 +1.1305841819e+01 -1.9139743314e+01 2.2325730060e+01 1.7770000000e+00 0.0000e+00 -1.0000e+00
       22  1    3    3    0    0 -4.0581421976e+01 -3.8882220228e+01 -1.9166808721e+01 5.9380513773e+01 0.0000000000e+00 0.0000e+00 -1.0000e+00
<mgrwt>
<rscale>  2 0.12500000E+03</rscale>
<asrwt>0</asrwt>
<pdfrwt beam="1">  1       21 0.66173980E-02 0.12500000E+03</pdfrwt>
<pdfrwt beam="2">  1       21 0.12766003E-01 0.12500000E+03</pdfrwt>
<totfact> 0.87770765E+06</totfact>
</mgrwt>
</event>
<event>
 6      0 +9.8758382e+01 1.25000000e+02 7.54677100e-03 1.12640300e-01
       21 -1    0    0  502  501 +0.0000000000e+00 +0.0000000000e+00 +7.1928898329e+00 7.1928898329e+00 0.0000000000e+00 0.0000e+00 1.0000e+00
       21 -1    0    0  501  502 -0.0000000000e+00 -0.0000000000e+00 -5.4307101746e+02 5.4307101746e+02 0.0000000000e+00 0.0000e+00 1.0000e+00
       25  2    1    2    0    0 +0.0000000000e+00 +0.0000000000e+00 -5.3587812763e+02 5.5026390729e+02 1.2500000000e+02 0.0000e+00 0.0000e+00
      -15  1    3    3    0    0 -4.8258158188e+00 +4.4533901771e+00 -6.3999995976e+01 6.4360534462e+01 1.7770000000e+00 0.0000e+00 -1.0000e+00
       15  1    3    3    0    0 +4.8827162997e+01 -3.5054174959e+01 -2.9573569649e+02 3.0178742011e+02 1.7770000000e+00 0.0000e+00 -1.0000e+00
       22  1    3    3    0    0 -4.4001347178e+01 +3.0600784782e+01 -1.7614243527e+02 1.8411595282e+02 0.0000000000e+00 0.0000e+00 -1.0000e+00
<mgrwt>
<rscale>  2 0.12500000E+03</rscale>
<asrwt>0</asrwt>
<pdfrwt beam="1">  1       21 0.10577775E-02 0.12500000E+03</pdfrwt>
<pdfrwt beam="2">  1       21 0.79863419E-01 0.12500000E+03</pdfrwt>
<totfact> 0.41776933E+06</totfact>
</mgrwt>
</event>
<event>
 6      0 +9.8758382e+01 1.25000000e+02 7.54677100e-03 1.12640300e-01
       21 -1    0    0  502  501 +0.0000000000e+00 +0.0000000000e+00 +4.6053941009e+02 4.6053941009e+02 0.0000000000e+00 0.0000e+00 1.0000e+00
       21 -1    0    0  501  502 -0.0000000000e+00 -0.0000000000e+00 -8.4819016883e+00 8.4819016883e+00 0.0000000000e+00 0.0000e+00 1.0000e+00
       25  2    1    2    0    0 +0.0000000000e+00 +0.0000000000e+00 +4.5205750841e+02 4.6902131178e+02 1.2500000000e+02 0.0000e+00 0.0000e+00
      -15  1    3    3    0    0 -1.3073905488e+01 -1.5149987780e+01 +7.0355686562e+01 7.3167817346e+01 1.7770000000e+00 0.0000e+00 -1.0000e+00
       15  1    3    3    0    0 -1.3395328490e+01 -3.7308609134e+01 +9.1033672195e+01 9.9305862582e+01 1.7770000000e+00 0.0000e+00 -1.0000e+00
       22  1    3    3    0    0 +2.6469233978e+01 +5.2458596915e+01 +2.9066814974e+02 2.9654763194e+02 0.0000000000e+00 0.0000e+00 -1.0000e+00
<mgrwt>
<rscale>  2 0.12500000E+03</rscale>
<asrwt>0</asrwt>
<pdfrwt beam="1">  1       21 0.67726367E-01 0.12500000E+03</pdfrwt>
<pdfrwt beam="2">  1       21 0.12473388E-02 0.12500000E+03</pdfrwt>
<totfact> 0.47722615E+06</totfact>
</mgrwt>
</event>
<event>
 6      0 +9.8758382e+01 1.25000000e+02 7.54677100e-03 1.12640300e-01
       21 -1    0    0  502  501 +0.0000000000e+00 +0.0000000000e+00 +5.2785543343e+01 5.2785543343e+01 0.0000000000e+00 0.0000e+00 -1.0000e+00
       21 -1    0    0  501  502 -0.0000000000e+00 -0.0000000000e+00 -7.4002269420e+01 7.4002269420e+01 0.0000000000e+00 0.0000e+00 -1.0000e+00
       25  2    1    2    0    0 +0.0000000000e+00 +0.0000000000e+00 -2.1216726077e+01 1.2678781276e+02 1.2500000000e+02 0.0000e+00 0.0000e+00
      -15  1    3    3    0    0 -1.5679559398e+01 -2.9782553991e+00 +2.1606187164e+01 2.6920320223e+01 1.7770000000e+00 0.0000e+00 -1.0000e+00
       15  1    3    3    0    0 -2.9229644680e+01 +2.3843983190e+01 -6.1823938119e+00 3.8266008215e+01 1.7770000000e+00 0.0000e+00 -1.0000e+00
       22  1    3    3    0    0 +4.4909204077e+01 -2.0865727791e+01 -3.6640519430e+01 6.1601484326e+01 0.0000000000e+00 0.0000e+00 -1.0000e+00
<mgrwt>
<rscale>  2 0.12500000E+03</rscale>
<asrwt>0</asrwt>
<pdfrwt beam="1">  1       21 0.77625800E-02 0.12500000E+03</pdfrwt>
<pdfrwt beam="2">  1       21 0.10882687E-01 0.12500000E+03</pdfrwt>
<totfact> 0.88670972E+06</totfact>
</mgrwt>
</event>
<event>
 6      0 +9.8758382e+01 1.25000000e+02 7.54677100e-03 1.12640300e-01
       21 -1    0    0  502  501 +0.0000000000e+00 +0.0000000000e+00 +1.4762563583e+02 1.4762563583e+02 0.0000000000e+00 0.0000e+00 -1.0000e+00
       21 -1    0    0  501  502 -0.0000000000e+00 -0.0000000000e+00 -2.6460512620e+01 2.6460512620e+01 0.0000000000e+00 0.0000e+00 -1.0000e+00
       25  2    1    2    0    0 +0.0000000000e+00 +0.0000000000e+00 +1.2116512321e+02 1.7408614845e+02 1.2500000000e+02 0.0000e+00 0.0000e+00
      -15  1    3    3    0    0 -2.5392939484e+01 +1.9356990723e+01 +1.6294797955e+01 3.5891121951e+01 1.7770000000e+00 0.0000e+00 -1.0000e+00
       15  1    3    3    0    0 -2.0350393643e+01 -4.3150030476e+00 -2.0031787965e+00 2.0974466072e+01 1.7770000000e+00 0.0000e+00 -1.0000e+00
       22  1    3    3    0    0 +4.5743333126e+01 -1.5041987676e+01 +1.0687350405e+02 1.1722056043e+02 0.0000000000e+00 0.0000e+00 -1.0000e+00
<mgrwt>
<rscale>  2 0.12500000E+03</rscale>
<asrwt>0</asrwt>
<pdfrwt beam="1">  1       21 0.21709652E-01 0.12500000E+03</pdfrwt>
<pdfrwt beam="2">  1       21 0.38912519E-02 0.12500000E+03</pdfrwt>
<totfact> 0.80720744E+06</totfact>
</mgrwt>
</event>
<event>
 6      0 +9.8758382e+01 1.25000000e+02 7.54677100e-03 1.12640300e-01
       21 -1    0    0  502  501 +0.0000000000e+00 +0.0000000000e+00 +6.9196588816e+00 6.9196588816e+00 0.0000000000e+00 0.0000e+00 1.0000e+00
       21 -1    0    0  501  502 -0.0000000000e+00 -0.0000000000e+00 -5.6451482173e+02 5.6451482173e+02 0.0000000000e+00 0.0000e+00 1.0000e+00
       25  2    1    2    0    0 +0.0000000000e+00 +0.0000000000e+00 -5.5759516285e+02 5.7143448061e+02 1.2500000000e+02 0.0000e+00 0.0000e+00
      -15  1    3    3    0    0 -2.8283081573e+01 -2.8669161835e+00 -9.5665132795e+01 9.9815466103e+01 1.7770000000e+00 0.0000e+00 -1.0000e+00
       15  1    3    3    0    0 -1.4142552777e+01 +1.1535224532e+00 -9.4264623983e+00 1.7127706660e+01 1.7770000000e+00 0.0000e+00 -1.0000e+00
       22  1    3    3    0    0 +4.2425634349e+01 +1.7133937304e+00 -4.5250356772e+02 4.5449130791e+02 0.0000000000e+00 0.0000e+00 -1.0000e+00
<mgrwt>
<rscale>  2 0.12500000E+03</rscale>
<asrwt>0</asrwt>
<pdfrwt beam="1">  1       21 0.10175970E-02 0.12500000E+03</pdfrwt>
<pdfrwt beam="2">  1       21 0.83016874E-01 0.12500000E+03</pdfrwt>
<totfact> 0.40370428E+06</totfact>
</mgrwt>
</event>
<event>
 6      0 +9.8758382e+01 1.25000000e+02 7.54677100e-03 1.12640300e-01
       21 -1    0    0  502  501 +0.0000000000e+00 +0.0000000000e+00 +6.8079919538e+01 6.8079919538e+01 0.0000000000e+00 0.0000e+00 -1.0000e+00
       21 -1    0    0  501  502 -0.0000000000e+00 -0.0000000000e+00 -5.7377417990e+01 5.7377417990e+01 0.0000000000e+00 0.0000e+00 -1.0000e+00
       25  2    1    2    0    0 +0.0000000000e+00 +0.0000000000e+00 +1.0702501548e+01 1.2545733753e+02 1.2500000000e+02 0.0000e+00 0.0000e+00
      -15  1    3    3    0    0 -3.5816362652e+01 -1.4050199818e+01 +8.2211729807e+00 3.9382297581e+01 1.7770000000e+00 0.0000e+00 -1.0000e+00
       15  1    3    3    0    0 +3.9576198555e+01 +6.9516619352e+00 +3.4545315955e+01 5.3020162949e+01 1.7770000000e+00 0.0000e+00 -1.0000e+00
       22  1    3    3    0    0 -3.7598359036e+00 +7.0985378832e+00 -3.2063987388e+01 3.3054876997e+01 0.0000000000e+00 0.0000e+00 -1.0000e+00
<mgrwt>
<rscale>  2 0.12500000E+03</rscale>
<asrwt>0</asrwt>
<pdfrwt beam="1">  1       21 0.10011753E-01 0.12500000E+03</pdfrwt>
<pdfrwt beam="2">  1       21 0.84378556E-02 0.12500000E+03</pdfrwt>
<totfact> 0.88911426E+06</totfact>
</mgrwt>
</event>
<event>
 6      0 +9.8758382e+01 1.25000000e+02 7.54677100e-03 1.12640300e-01
       21 -1    0    0  502  501 +0.0000000000e+00 +0.0000000000e+00 +5.4496442600e+01 5.4496442600e+01 0.0000000000e+00 0.0000e+00 1.0000e+00
       21 -1    0    0  501  502 -0.0000000000e+00 -0.0000000000e+00 -7.1678990658e+01 7.1678990658e+01 0.0000000000e+00 0.0000e+00 1.0000e+00
       25  2    1    2    0    0 +0.0000000000e+00 +0.0000000000e+00 -1.7182548058e+01 1.2617543326e+02 1.2500000000e+02 0.0000e+00 0.0000e+00
      -15  1    3    3    0    0 +1.6779434282e+01 +1.3493216550e+01 +2.4768655343e+01 3.2867313917e+01 1.7770000000e+00 0.0000e+00 -1.0000e+00
       15  1    3    3    0    0 -1.1114065191e+01 +2.9460072317e+01 +1.9902907166e+00 3.1599640696e+01 1.7770000000e+00 0.0000e+00 -1.0000e+00
       22  1    3    3    0    0 -5.6653690907e+00 -4.2953288866e+01 -4.3941494116e+01 6.1708478644e+01 0.0000000000e+00 0.0000e+00 -1.0000e+00
<mgrwt>
<rscale>  2 0.12500000E+03</rscale>
<asrwt>0</asrwt>
<pdfrwt beam="1">  1       21 0.80141828E-02 0.12500000E+03</pdfrwt>
<pdfrwt beam="2">  1       21 0.10541028E-01 0.12500000E+03</pdfrwt>
<totfact> 0.88780143E+06</totfact>
</mgrwt>
</event>
<event>
 6      0 +9.8758382e+01 1.25000000e+02 7.54677100e-03 1.12640300e-01
       21 -1    0    0  502  501 +0.0000000000e+00 +0.0000000000e+00 +2.3117667798e+02 2.3117667798e+02 0.0000000000e+00 0.0000e+00 -1.0000e+00
       21 -1    0    0  501  502 -0.0000000000e+00 -0.0000000000e+00 -1.6897249472e+01 1.6897249472e+01 0.0000000000e+00 0.0000e+00 -1.0000e+00
       25  2    1    2    0    0 +0.0000000000e+00 +0.0000000000e+00 +2.1427942851e+02 2.4807392746e+02 1.2500000000e+02 0.0000e+00 0.0000e+00
      -15  1    3    3    0    0 +1.9663161879e+01 +2.4020399146e+01 +2.7067084022e+01 4.1223831417e+01 1.7770000000e+00 0.0000e+00 -1.0000e+00
       15  1    3    3    0    0 -4.0773099690e+01 +8.7786959641e-01 +4.4228695558e+01 6.0187636215e+01 1.7770000000e+00 0.0000e+00 -1.0000e+00
       22  1    3    3    0    0 +2.1109937811e+01 -2.4898268742e+01 +1.4298364891e+02 1.4666245980e+02 0.0000000000e+00 0.0000e+00 -1.0000e+00
<mgrwt>
<rscale>  2 0.12500000E+03</rscale>
<asrwt>0</asrwt>
<pdfrwt beam="1">  1       21 0.33996568E-01 0.12500000E+03</pdfrwt>
<pdfrwt beam="2">  1       21 0.24848898E-02 0.12500000E+03</pdfrwt>
<totfact> 0.70251404E+06</totfact>
</mgrwt>
</event>
<event>
 6      0 +9.8758382e+01 1.25000000e+02 7.54677100e-03 1.12640300e-01
       21 -1    0    0  502  501 +0.0000000000e+00 +0.0000000000e+00 +3.4058807916e+02 3.4058807916e+02 0.0000000000e+00 0.0000e+00 -1.0000e+00
       21 -1    0    0  501  502 -0.0000000000e+00 -0.0000000000e+00 -1.1469133064e+01 1.1469133064e+01 0.0000000000e+00 0.0000e+00 -1.0000e+00
       25  2    1    2    0    0 +0.0000000000e+00 +0.0000000000e+00 +3.2911894610e+02 3.5205721223e+02 1.2500000000e+02 0.0000e+00 0.0000e+00
      -15  1    3    3    0    0 -2.2109648338e+01 +7.1019053672e+00 +2.0552751782e+01 3.1061985518e+01 1.7770000000e+00 0.0000e+00 -1.0000e+00
       15  1    3    3    0    0 +1.8427231002e+01 -8.9584298596e+00 +1.0854521234e+01 2.3254992328e+01 1.7770000000e+00 0.0000e+00 -1.0000e+00
       22  1    3    3    0    0 +3.6824173359e+00 +1.8565244925e+00 +2.9771167307e+02 2.9774023437e+02 0.0000000000e+00 0.0000e+00 -1.0000e+00
<mgrwt>
<rscale>  2 0.12500000E+03</rscale>
<asrwt>0</asrwt>
<pdfrwt beam="1">  1       21 0.50086476E-01 0.12500000E+03</pdfrwt>
<pdfrwt beam="2">  1       21 0.16866374E-02 0.12500000E+03</pdfrwt>
<totfact> 0.58318646E+06</totfact>
</mgrwt>
</event>
<event>
 6      0 +9.8758382e+01 1.25000000e+02 7.54677100e-03 1.12640300e-01
       21 -1    0    0  502  501 +0.0000000000e+00 +0.0000000000e+00 +4.4038851971e+01 4.4038851971e+01 0.0000000000e+00 0.0000e+00 1.0000e+00
       21 -1    0    0  501  502 -0.0000000000e+00 -0.0000000000e+00 -8.8700086972e+01 8.8700086972e+01 0.0000000000e+00 0.0000e+00 1.0000e+00
       25  2    1    2    0    0 +0.0000000000e+00 +0.0000000000e+00 -4.4661235001e+01 1.3273893894e+02 1.2500000000e+02 0.0000e+00 0.0000e+00
      -15  1    3    3    0    0 +5.9335926478e+00 +1.1149451530e+01 -5.9069245077e+00 1.4055862736e+01 1.7770000000e+00 0.0000e+00 -1.0000e+00
       15  1    3    3    0    0 +5.0193398088e+00 +3.5117756312e+01 +2.1813481191e+01 4.1682565555e+01 1.7770000000e+00 0.0000e+00 -1.0000e+00
       22  1    3    3    0    0 -1.0952932457e+01 -4.6267207843e+01 -6.0567791686e+01 7.7000510652e+01 0.0000000000e+00 0.0000e+00 -1.0000e+00
<mgrwt>
<rscale>  2 0.12500000E+03</rscale>
<asrwt>0</asrwt>
<pdfrwt beam="1">  1       21 0.64763018E-02 0.12500000E+03</pdfrwt>
<pdfrwt beam="2">  1       21 0.13044130E-01 0.12500000E+03</pdfrwt>
<totfact> 0.87604422E+06</totfact>
</mgrwt>
</event>
<event>
 6      0 +9.8758382e+01 1.25000000e+02 7.54677100e-03 1.12640300e-01
       21 -1    0    0  502  501 +0.0000000000e+00 +0.0000000000e+00 +3.4333745614e+01 3.4333745614e+01 0.0000000000e+00 0.0000e+00 1.0000e+00
       21 -1    0    0  501  502 -0.0000000000e+00 -0.0000000000e+00 -1.1377290564e+02 1.1377290564e+02 0.0000000000e+00 0.0000e+00 1.0000e+00
       25  2    1    2    0    0 +0.0000000000e+00 +0.0000000000e+00 -7.9439160028e+01 1.4810665125e+02 1.2500000000e+02 0.0000e+00 0.0000e+00
      -15  1    3    3    0    0 +1.3885434838e+01 -1.8273866853e+01 -1.7238040785e+01 2.8758429886e+01 1.7770000000e+00 0.0000e+00 -1.0000e+00
       15  1    3    3    0    0 -5.1168508399e+01 -9.1081383275e+00 -4.8485344415e+01 7.1099653920e+01 1.7770000000e+00 0.0000e+00 -1.0000e+00
       22  1    3    3    0    0 +3.7283073561e+01 +2.7382005180e+01 -1.3715774831e+01 4.8248567450e+01 0.0000000000e+00 0.0000e+00 -1.0000e+00
<mgrwt>
<rscale>  2 0.12500000E+03</rscale>
<asrwt>0</asrwt>
<pdfrwt beam="1">  1       21 0.50490803E-02 0.12500000E+03</pdfrwt>
<pdfrwt beam="2">  1       21 0.16731309E-01 0.12500000E+03</pdfrwt>
<totfact> 0.84944384E+06</totfact>
</mgrwt>
</event>
<event>
 6      0 +9.8758382e+01 1.25000000e+02 7.54677100e-03 1.12640300e-01
       21 -1    0    0  502  501 +0.0000000000e+00 +0.0000000000e+00 +3.5748760372e+01 3.5748760372e+01 0.0000000000e+00 0.0000e+00 -1.0000e+00
       21 -1    0    0  501  502 -0.0000000000e+00 -0.0000000000e+00 -1.0926952318e+02 1.0926952318e+02 0.0000000000e+00 0.0000e+00 -1.0000e+00
       25  2    1    2    0    0 +0.0000000000e+00 +0.0000000000e+00 -7.3520762806e+01 1.4501828355e+02 1.2500000000e+02 0.0000e+00 0.0000e+00
      -15  1    3    3    0    0 -4.0269958805e+01 +3.8216073637e+01 -1.1619297898e+01 5.6747719593e+01 1.7770000000e+00 0.0000e+00 -1.0000e+00
       15  1    3    3    0    0 +1.9280008494e+01 -1.7745463844e+00 -1.1349819064e+01 2.2513193113e+01 1.7770000000e+00 0.0000e+00 -1.0000e+00
       22  1    3    3    0    0 +2.0989950311e+01 -3.6441527253e+01 -5.0551645843e+01 6.5757370842e+01 0.0000000000e+00 0.0000e+00 -1.0000e+00
<mgrwt>
<rscale>  2 0.12500000E+03</rscale>
<asrwt>0</asrwt>
<pdfrwt beam="1">  1       21 0.52571706E-02 0.12500000E+03</pdfrwt>
<pdfrwt beam="2">  1       21 0.16069048E-01 0.12500000E+03</pdfrwt>
<totfact> 0.85471113E+06</totfact>
</mgrwt>
</event>
<event>
 6      0 +9.8758382e+01 1.25000000e+02 7.54677100e-03 1.12640300e-01
       21 -1    0    0  502  501 +0.0000000000e+00 +0.0000000000e+00 +2.0435591875e+01 2.0435591875e+01 0.0000000000e+00 0.0000e+00 1.0000e+00
       21 -1    0    0  501  502 -0.0000000000e+00 -0.0000000000e+00 -1.9114934492e+02 1.9114934492e+02 0.0000000000e+00 0.0000e+00 1.0000e+00
       25  2    1    2    0    0 +0.0000000000e+00 +0.0000000000e+00 -1.7071375304e+02 2.1158493679e+02 1.2500000000e+02 0.0000e+00 0.0000e+00
      -15  1    3    3    0    0 -1.0911167997e-01 +1.3933977074e+01 -4.7744044404e+01 4.9767651417e+01 1.7770000000e+00 0.0000e+00 -1.0000e+00
       15  1    3    3    0    0 +2.7511285404e+01 +3.6804855253e+01 -4.1084462250e+01 6.1664892460e+01 1.7770000000e+00 0.0000e+00 -1.0000e+00
       22  1    3    3    0    0 -2.7402173724e+01 -5.0738832327e+01 -8.1885246390e+01 1.0015239292e+02 0.0000000000e+00 0.0000e+00 -1.0000e+00
<mgrwt>
<rscale>  2 0.12500000E+03</rscale>
<asrwt>0</asrwt>
<pdfrwt beam="1">  1       21 0.30052343E-02 0.12500000E+03</pdfrwt>
<pdfrwt beam="2">  1       21 0.28110196E-01 0.12500000E+03</pdfrwt>
<totfact> 0.75161151E+06</totfact>
</mgrwt>
</event>
<event>
 6      0 +9.8758382e+01 1.25000000e+02 7.54677100e-03 1.12640300e-01
       21 -1    0    0  502  501 +0.0000000000e+00 +0.0000000000e+00 +1.8180820177e+01 1.8180820177e+01 0.0000000000e+00 0.0000e+00 -1.0000e+00
       21 -1    0    0  501  502 -0.0000000000e+00 -0.0000000000e+00 -2.1485554348e+02 2.1485554348e+02 0.0000000000e+00 0.0000e+00 -1.0000e+00
       25  2    1    2    0    0 +0.0000000000e+00 +0.0000000000e+00 -1.9667472330e+02 2.3303636366e+02 1.2500000000e+02 0.0000e+00 0.0000e+00
      -15  1    3    3    0    0 +2.5363378098e+01 -1.3279648719e+01 -4.4425673287e+01 5.2881454166e+01 1.7770000000e+00 0.0000e+00 -1.0000e+00
       15  1    3    3    0    0 +2.9442052159e+01 -4.2438929224e-01 -9.6017027237e+01 1.0044621342e+02 1.7770000000e+00 0.0000e+00 -1.0000e+00
       22  1    3    3    0    0 -5.4805430257e+01 +1.3704038012e+01 -5.6232022760e+01 7.9708696057e+01 0.0000000000e+00 0.0000e+00 -1.0000e+00
<mgrwt>
<rscale>  2 0.12500000E+03</rscale>
<asrwt>0</asrwt>
<pdfrwt beam="1">  1       21 0.26736499E-02 0.12500000E+03</pdfrwt>
<pdfrwt beam="2">  1       21 0.31596405E-01 0.12500000E+03</pdfrwt>
<totfact> 0.72231032E+06</totfact>
</mgrwt>
</event>
<event>
 6      0 +9.8758382e+01 1.25000000e+02 7.54677100e-03 1.12640300e-01
       21 -1    0    0  502  501 +0.0000000000e+00 +0.0000000000e+00 +2.9541919866e+02 2.9541919866e+02 0.0000000000e+00 0.0000e+00 -1.0000e+00
       21 -1    0    0  501  502 -0.0000000000e+00 -0.0000000000e+00 -1.3222735752e+01 1.3222735752e+01 0.0000000000e+00 0.0000e+00 -1.0000e+00
       25  2    1    2    0    0 +0.0000000000e+00 +0.0000000000e+00 +2.8219646291e+02 3.0864193442e+02 1.2500000000e+02 0.0000e+00 0.0000e+00
      -15  1    3    3    0    0 +2.0437510512e+01 -6.5713329317e+00 +1.4799623018e+01 2.6135432327e+01 1.7770000000e+00 0.0000e+00 -1.0000e+00
       15  1    3    3    0    0 +3.0345727587e+01 -6.3922546085e+00 +1.6018870474e+02 1.6317261705e+02 1.7770000000e+00 0.0000e+00 -1.0000e+00
       22  1    3    3    0    0 -5.0783238099e+01 +1.2963587540e+01 +1.0720813512e+02 1.1933388500e+02 0.0000000000e+00 0.0000e+00 -1.0000e+00
<mgrwt>
<rscale>  2 0.12500000E+03</rscale>
<asrwt>0</asrwt>
<pdfrwt beam="1">  1       21 0.43443996E-01 0.12500000E+03</pdfrwt>
<pdfrwt beam="2">  1       21 0.19445201E-02 0.12500000E+03</pdfrwt>
<totfact> 0.62967376E+06</totfact>
</mgrwt>
</event>
<event>
 6      0 +9.8758382e+01 1.25000000e+02 7.54677100e-03 1.12640300e-01
       21 -1    0    0  502  501 +0.0000000000e+00 +0.0000000000e+00 +2.5171990824e+02 2.5171990824e+02 0.0000000000e+00 0.0000e+00 -1.0000e+00
       21 -1    0    0  501  502 -0.0000000000e+00 -0.0000000000e+00 -1.5518240203e+01 1.5518240203e+01 0.0000000000e+00 0.0000e+00 -1.0000e+00
       25  2    1    2    0    0 +0.0000000000e+00 +0.0000000000e+00 +2.3620166804e+02 2.6723814844e+02 1.2500000000e+02 0.0000e+00 0.0000e+00
      -15  1    3    3    0    0 +1.6801436152e+01 +1.7950420729e+01 +1.2531496894e+02 1.2771650258e+02 1.7770000000e+00 0.0000e+00 -1.0000e+00
       15  1    3    3    0    0 -1.4560380334e+01 +1.3096939330e+01 +1.0624481637e+02 1.0804930926e+02 1.7770000000e+00 0.0000e+00 -1.0000e+00
       22  1    3    3    0    0 -2.2410558175e+00 -3.1047360059e+01 +4.6418827508e+00 3.1472336635e+01 0.0000000000e+00 0.0000e+00 -1.0000e+00
<mgrwt>
<rscale>  2 0.12500000E+03</rscale>
<asrwt>0</asrwt>
<pdfrwt beam="1">  1       21 0.37017631E-01 0.12500000E+03</pdfrwt>
<pdfrwt beam="2">  1       21 0.22820943E-02 0.12500000E+03</pdfrwt>
<totfact> 0.67836733E+06</totfact>
</mgrwt>
</event>
<event>
 6      0 +9.8758382e+01 1.25000000e+02 7.54677100e-03 1.12640300e-01
       21 -1    0    0  502  501 +0.0000000000e+00 +0.0000000000e+00 +5.0661802018e+02 5.0661802018e+02 0.0000000000e+00 0.0000e+00 1.0000e+00
       21 -1    0    0  501  502 -0.0000000000e+00 -0.0000000000e+00 -7.7104442487e+00 7.7104442487e+00 0.0000000000e+00 0.0000e+00 1.0000e+00
       25  2    1    2    0    0 +0.0000000000e+00 +0.0000000000e+00 +4.9890757593e+02 5.1432846443e+02 1.2500000000e+02 0.0000e+00 0.0000e+00
      -15  1    3    3    0    0 +5.3828715435e+01 +5.7635029599e-01 +2.7954775409e+02 2.8468924695e+02 1.7770000000e+00 0.0000e+00 -1.0000e+00
       15  1    3    3    0    0 -2.2279821390e+00 +9.7899018210e+00 +1.2208698698e+01 1.5906480911e+01 1.7770000000e+00 0.0000e+00 -1.0000e+00
       22  1    3    3    0    0 -5.1600733296e+01 -1.0366252117e+01 +2.0715112311e+02 2.1373273653e+02 0.0000000000e+00 0.0000e+00 -1.0000e+00
<mgrwt>
<rscale>  2 0.12500000E+03</rscale>
<asrwt>0</asrwt>
<pdfrwt beam="1">  1       21 0.74502628E-01 0.12500000E+03</pdfrwt>
<pdfrwt beam="2">  1       21 0.11338892E-02 0.12500000E+03</pdfrwt>
<totfact> 0.44277294E+06</totfact>
</mgrwt>
</event>
<event>
 6      0 +9.8758382e+01 1.25000000e+02 7.54677100e-03 1.12640300e-01
       21 -1    0    0  502  501 +0.0000000000e+00 +0.0000000000e+00 +8.0021069612e+01 8.0021069612e+01 0.0000000000e+00 0.0000e+00 -1.0000e+00
       21 -1    0    0  501  502 -0.0000000000e+00 -0.0000000000e+00 -4.8815268515e+01 4.8815268515e+01 0.0000000000e+00 0.0000e+00 -1.0000e+00
       25  2    1    2    0    0 +0.0000000000e+00 +0.0000000000e+00 +3.1205801097e+01 1.2883633813e+02 1.2500000000e+02 0.0000e+00 0.0000e+00
      -15  1    3    3    0    0 +2.2252042028e+01 -7.0781194760e+00 +6.9764835592e+00 2.4435265531e+01 1.7770000000e+00 0.0000e+00 -1.0000e+00
       15  1    3    3    0    0 +3.7463971339e+01 -5.0179268654e+00 +2.1251747773e+01 4.3399576622e+01 1.7770000000e+00 0.0000e+00 -1.0000e+00
       22  1    3    3    0    0 -5.9716013367e+01 +1.2096046341e+01 +2.9775697645e+00 6.1001495975e+01 0.0000000000e+00 0.0000e+00 -1.0000e+00
<mgrwt>
<rscale>  2 0.12500000E+03</rscale>
<asrwt>0</asrwt>
<pdfrwt beam="1">  1       21 0.11767804E-01 0.12500000E+03</pdfrwt>
<pdfrwt beam="2">  1       21 0.71787159E-02 0.12500000E+03</pdfrwt>
<totfact> 0.88308751E+06</totfact>
</mgrwt>
</event>
<event>
 6      0 +9.8758382e+01 1.25000000e+02 7.54677100e-03 1.12640300e-01
       21 -1    0    0  502  501 +0.0000000000e+00 +0.0000000000e+00 +3.7339234876e+01 3.7339234876e+01 0.0000000000e+00 0.0000e+00 1.0000e+00
       21 -1    0    0  501  502 -0.0000000000e+00 -0.0000000000e+00 -1.0461515917e+02 1.0461515917e+02 0.0000000000e+00 0.0000e+00 1.0000e+00
       25  2    1    2    0    0 +0.0000000000e+00 +0.0000000000e+00 -6.7275924299e+01 1.4195439405e+02 1.2500000000e+02 0.0000e+00 0.0000e+00
      -15  1    3    3    0    0 -5.7439872227e+00 +3.8517229764e+00 -2.1555333048e+01 2.2707251505e+01 1.7770000000e+00 0.0000e+00 -1.0000e+00
       15  1    3    3    0    0 -1.0536572619e+00 +1.4985195031e+01 -7.8984657469e+01 8.0420147402e+01 1.7770000000e+00 0.0000e+00 -1.0000e+00
       22  1    3    3    0    0 +6.7976444846e+00 -1.8836918008e+01 +3.3264066218e+01 3.8826995143e+01 0.0000000000e+00 0.0000e+00 -1.0000e+00
<mgrwt>
<rscale>  2 0.12500000E+03</rscale>
<asrwt>0</asrwt>
<pdfrwt beam="1">  1       21 0.54910640E-02 0.12500000E+03</pdfrwt>
<pdfrwt beam="2">  1       21 0.15384582E-01 0.12500000E+03</pdfrwt>
<totfact> 0.86001771E+06</totfact>
</mgrwt>
</event>
<event>
 6      0 +9.8758382e+01 1.25000000e+02 7.54677100e-03 1.12640300e-01
       21 -1    0    0  502  501 +0.0000000000e+00 +0.0000000000e+00 +5.3777877486e+00 5.3777877486e+00 0.0000000000e+00 0.0000e+00 -1.0000e+00
       21 -1    0    0  501  502 -0.0000000000e+00 -0.0000000000e+00 -7.2636745490e+02 7.2636745490e+02 0.0000000000e+00 0.0000e+00 -1.0000e+00
       25  2    1    2    0    0 +0.0000000000e+00 +0.0000000000e+00 -7.2098966716e+02 7.3174524265e+02 1.2500000000e+02 0.0000e+00 0.0000e+00
      -15  1    3    3    0    0 +2.8560633279e+01 +2.5183465207e+01 -5.1636534329e+02 5.1777045317e+02 1.7770000000e+00 0.0000e+00 -1.0000e+00
       15  1    3    3    0    0 -3.1021463254e+01 +5.5525868723e+00 -9.5766855760e+01 1.0083457143e+02 1.7770000000e+00 0.0000e+00 -1.0000e+00
       22  1    3    3    0    0 +2.4608299752e+00 -3.0736052080e+01 -1.0885746836e+02 1.1314021831e+02 0.0000000000e+00 0.0000e+00 -1.0000e+00
<mgrwt>
<rscale>  2 0.12500000E+03</rscale>
<asrwt>0</asrwt>
<pdfrwt beam="1">  1       21 0.79085180E-03 0.12500000E+03</pdfrwt>
<pdfrwt beam="2">  1       21 0.10681865E+00 0.12500000E+03</pdfrwt>
<totfact> 0.31350960E+06</totfact>
</mgrwt>
</event>
<event>
 6      0 +9.8758382e+01 1.25000000e+02 7.54677100e-03 1.12640300e-01
       21 -1    0    0  502  501 +0.0000000000e+00 +0.0000000000e+00 +1.5164231461e+01 1.5164231461e+01 0.0000000000e+00 0.0000e+00 -1.0000e+00
       21 -1    0    0  501  502 -0.0000000000e+00 -0.0000000000e+00 -2.5759630549e+02 2.5759630549e+02 0.0000000000e+00 0.0000e+00 -1.0000e+00
       25  2    1    2    0    0 +0.0000000000e+00 +0.0000000000e+00 -2.4243207403e+02 2.7276053696e+02 1.2500000000e+02 0.0000e+00 0.0000e+00
      -15  1    3    3    0    0 -3.0993132412e+01 +1.9567968873e+01 -5.8526226964e+01 6.9079350273e+01 1.7770000000e+00 0.0000e+00 -1.0000e+00
       15  1    3    3    0    0 +7.3523051362e+00 +2.2009441315e+01 -1.3972170202e+01 2.7145002615e+01 1.7770000000e+00 0.0000e+00 -1.0000e+00
       22  1    3    3    0    0 +2.3640827276e+01 -4.1577410188e+01 -1.6993367683e+02 1.7653618404e+02 0.0000000000e+00 0.0000e+00 -1.0000e+00
<mgrwt>
<rscale>  2 0.12500000E+03</rscale>
<asrwt>0</asrwt>
<pdfrwt beam="1">  1       21 0.22300339E-02 0.12500000E+03</pdfrwt>
<pdfrwt beam="2">  1       21 0.37881812E-01 0.12500000E+03</pdfrwt>
<totfact> 0.67162318E+06</totfact>
</mgrwt>
</event>
<event>
 6      0 +9.8758382e+01 1.25000000e+02 7.54677100e-03 1.12640300e-01
       21 -1    0    0  502  501 +0.0000000000e+00 +0.0000000000e+00 +2.9347597390e+02 2.9347597390e+02 0.0000000000e+00 0.0000e+00 1.0000e+00
       21 -1    0    0  501  502 -0.0000000000e+00 -0.0000000000e+00 -1.3310288908e+01 1.3310288908e+01 0.0000000000e+00 0.0000e+00 1.0000e+00
       25  2    1    2    0    0 +0.0000000000e+00 +0.0000000000e+00 +2.8016568499e+02 3.0678626281e+02 1.2500000000e+02 0.0000e+00 0.0000e+00
      -15  1    3    3    0    0 +3.0436503016e+01 -1.5753256313e+01 +2.8485158663e+01 4.4599414720e+01 1.7770000000e+00 0.0000e+00 -1.0000e+00
       15  1    3    3    0    0 -9.8944285472e+00 +3.4726116180e+01 +2.0171181106e+02 2.0492587760e+02 1.7770000000e+00 0.0000e+00 -1.0000e+00
       22  1    3    3    0    0 -2.0542074469e+01 -1.8972859868e+01 +4.9968715242e+01 5.7260970459e+01 0.0000000000e+00 0.0000e+00 -1.0000e+00
<mgrwt>
<rscale>  2 0.12500000E+03</rscale>
<asrwt>0</asrwt>
<pdfrwt beam="1">  1       21 0.43158227E-01 0.12500000E+03</pdfrwt>
<pdfrwt beam="2">  1       21 0.19573956E-02 0.12500000E+03</pdfrwt>
<totfact> 0.63176673E+06</totfact>
</mgrwt>
</event>
<event>
 6      0 +9.8758382e+01 1.25000000e+02 7.54677100e-03 1.12640300e-01
       21 -1    0    0  502  501 +0.0000000000e+00 +0.0000000000e+00 +1.2616107941e+02 1.2616107941e+02 0.0000000000e+00 0.0000e+00 -1.0000e+00
       21 -1    0    0  501  502 -0.0000000000e+00 -0.0000000000e+00 -3.0962401545e+01 3.0962401545e+01 0.0000000000e+00 0.0000e+00 -1.0000e+00
       25  2    1    2    0    0 +0.0000000000e+00 +0.0000000000e+00 +9.5198677863e+01 1.5712348095e+02 1.2500000000e+02 0.0000e+00 0.0000e+00
      -15  1    3    3    0    0 -3.6918182647e+01 -5.2152626508e+00 +3.1555213684e+01 4.8877811061e+01 1.7770000000e+00 0.0000e+00 -1.0000e+00
       15  1    3    3    0    0 -9.3504823538e+00 -2.8022184531e+01 +1.4256037939e+01 3.2849150564e+01 1.7770000000e+00 0.0000e+00 -1.0000e+00
       22  1    3    3    0    0 +4.6268665000e+01 +3.3237447182e+01 +4.9387426244e+01 7.5396519330e+01 0.0000000000e+00 0.0000e+00 -1.0000e+00
<mgrwt>
<rscale>  2 0.12500000E+03</rscale>
<asrwt>0</asrwt>
<pdfrwt beam="1">  1       21 0.18553100E-01 0.12500000E+03</pdfrwt>
<pdfrwt beam="2">  1       21 0.45532944E-02 0.12500000E+03</pdfrwt>
<totfact> 0.83447562E+06</totfact>
</mgrwt>
</event>
<event>
 6      0 +9.8758382e+01 1.25000000e+02 7.54677100e-03 1.12640300e-01
       21 -1    0    0  502  501 +0.0000000000e+00 +0.0000000000e+00 +3.5431843953e+01 3.5431843953e+01 0.0000000000e+00 0.0000e+00 1.0000e+00
       21 -1    0    0  501  502 -0.0000000000e+00 -0.0000000000e+00 -1.1024687299e+02 1.1024687299e+02 0.0000000000e+00 0.0000e+00 1.0000e+00
       25  2    1    2    0    0 +0.0000000000e+00 +0.0000000000e+00 -7.4815029035e+01 1.4567871694e+02 1.2500000000e+02 0.0000e+00 0.0000e+00
      -15  1    3    3    0    0 +1.6352686152e+01 +2.8084493121e+01 -1.2115506653e+01 3.4728840014e+01 1.7770000000e+00 0.0000e+00 -1.0000e+00
       15  1    3    3    0    0 -2.9271115818e+01 -2.9727909681e+01 -7.9436574939e+01 8.9743378599e+01 1.7770000000e+00 0.0000e+00 -1.0000e+00
       22  1    3    3    0    0 +1.2918429666e+01 +1.6434165599e+00 +1.6737052558e+01 2.1206498327e+01 0.0000000000e+00 0.0000e+00 -1.0000e+00
<mgrwt>
<rscale>  2 0.12500000E+03</rscale>
<asrwt>0</asrwt>
<pdfrwt beam="1">  1       21 0.52105653E-02 0.12500000E+03</pdfrwt>
<pdfrwt beam="2">  1       21 0.16212775E-01 0.12500000E+03</pdfrwt>
<totfact> 0.85357751E+06</totfact>
</mgrwt>
</event>
<event>
 6      0 +9.8758382e+01 1.25000000e+02 7.54677100e-03 1.12640300e-01
       21 -1    0    0  502  501 +0.0000000000e+00 +0.0000000000e+00 +2.7313628364e+01 2.7313628364e+01 0.0000000000e+00 0.0000e+00 -1.0000e+00
       21 -1    0    0  501  502 -0.0000000000e+00 -0.0000000000e+00 -1.4301468659e+02 1.4301468659e+02 0.0000000000e+00 0.0000e+00 -1.0000e+00
       25  2    1    2    0    0 +0.0000000000e+00 +0.0000000000e+00 -1.1570105822e+02 1.7032831495e+02 1.2500000000e+02 0.0000e+00 0.0000e+00
      -15  1    3    3    0    0 +8.3031780097e+00 +9.0201005890e+00 -2.6272012935e+01 2.9046193767e+01 1.7770000000e+00 0.0000e+00 -1.0000e+00
       15  1    3    3    0    0 +6.6006069236e+00 -4.3762563719e+01 -9.3300108163e+01 1.0328019126e+02 1.7770000000e+00 0.0000e+00 -1.0000e+00
       22  1    3    3    0    0 -1.4903784933e+01 +3.4742463130e+01 +3.8710628805e+00 3.8001929917e+01 0.0000000000e+00 0.0000e+00 -1.0000e+00
<mgrwt>
<rscale>  2 0.12500000E+03</rscale>
<asrwt>0</asrwt>
<pdfrwt beam="1">  1       21 0.40167101E-02 0.12500000E+03</pdfrwt>
<pdfrwt beam="2">  1       21 0.21031571E-01 0.12500000E+03</pdfrwt>
<totfact> 0.81312121E+06</totfact>
</mgrwt>
</event>
<event>
 6      0 +9.8758382e+01 1.25000000e+02 7.54677100e-03 1.12640300e-01
       21 -1    0    0  502  501 +0.0000000000e+00 +0.0000000000e+00 +1.4201214417e+02 1.4201214417e+02 0.0000000000e+00 0.0000e+00 1.0000e+00
       21 -1    0    0  501  502 -0.0000000000e+00 -0.0000000000e+00 -2.7506450400e+01 2.7506450400e+01 0.0000000000e+00 0.0000e+00 1.0000e+00
       25  2    1    2    0    0 +0.0000000000e+00 +0.0000000000e+00 +1.1450569377e+02 1.6951859458e+02 1.2500000000e+02 0.0000e+00 0.0000e+00
      -15  1    3    3    0    0 -3.5996252630e+01 +4.2462811156e+00 +1.0291761255e+02 1.0912815314e+02 1.7770000000e+00 0.0000e+00 -1.0000e+00
       15  1    3    3    0    0 -7.9509613643e+00 -1.1703881845e+01 +5.9806362345e+00 1.5463646906e+01 1.7770000000e+00 0.0000e+00 -1.0000e+00
       22  1    3    3    0    0 +4.3947213995e+01 +7.4576007298e+00 +5.6074449793e+00 4.4926794518e+01 0.0000000000e+00 0.0000e+00 -1.0000e+00
<mgrwt>
<rscale>  2 0.12500000E+03</rscale>
<asrwt>0</asrwt>
<pdfrwt beam="1">  1       21 0.20884139E-01 0.12500000E+03</pdfrwt>
<pdfrwt beam="2">  1       21 0.40450663E-02 0.12500000E+03</pdfrwt>
<totfact> 0.81440697E+06</totfact>
</mgrwt>
</event>
<event>
 6      0 +9.8758382e+01 1.25000000e+02 7.54677100e-03 1.12640300e-01
       21 -1    0    0  502  501 +0.0000000000e+00 +0.0000000000e+00 +1.2456578116e+02 1.2456578116e+02 0.0000000000e+00 0.0000e+00 -1.0000e+00
       21 -1    0    0  501  502 -0.0000000000e+00 -0.0000000000e+00 -3.1358933115e+01 3.1358933115e+01 0.0000000000e+00 0.0000e+00 -1.0000e+00
       25  2    1    2    0    0 +0.0000000000e+00 +0.0000000000e+00 +9.3206848049e+01 1.5592471428e+02 1.2500000000e+02 0.0000e+00 0.0000e+00
      -15  1    3    3    0    0 +4.4892385635e+00 -6.7268456980e+00 +1.4770343431e+00 8.4108902844e+00 1.7770000000e+00 0.0000e+00 -1.0000e+00
       15  1    3    3    0    0 +2.8588654586e+01 -2.4992537191e+01 +9.4238161836e+01 1.0161656834e+02 1.7770000000e+00 0.0000e+00 -1.0000e+00
       22  1    3    3    0    0 -3.3077893150e+01 +3.1719382889e+01 -2.5083481309e+00 4.5897255653e+01 0.0000000000e+00 0.0000e+00 -1.0000e+00
<mgrwt>
<rscale>  2 0.12500000E+03</rscale>
<asrwt>0</asrwt>
<pdfrwt beam="1">  1       21 0.18318497E-01 0.12500000E+03</pdfrwt>
<pdfrwt beam="2">  1       21 0.46116079E-02 0.12500000E+03</pdfrwt>
<totfact> 0.83643636E+06</totfact>
</mgrwt>
</event>
<event>
 6      0 +9.8758382e+01 1.25000000e+02 7.54677100e-03 1.12640300e-01
       21 -1    0    0  502  501 +0.0000000000e+00 +0.0000000000e+00 +1.9380976306e+02 1.9380976306e+02 0.0000000000e+00 0.0000e+00 -1.0000e+00
       21 -1    0    0  501  502 -0.0000000000e+00 -0.0000000000e+00 -2.0155073399e+01 2.0155073399e+01 0.0000000000e+00 0.0000e+00 -1.0000e+00
       25  2    1    2    0    0 +0.0000000000e+00 +0.0000000000e+00 +1.7365468966e+02 2.1396483646e+02 1.2500000000e+02 0.0000e+00 0.0000e+00
      -15  1    3    3    0    0 -6.1033554391e+00 -2.5514424220e+01 +3.6988901143e+00 2.6553273018e+01 1.7770000000e+00 0.0000e+00 -1.0000e+00
       15  1    3    3    0    0 +2.5164396015e+01 -1.7287555102e+01 +8.5862578639e+01 9.1146291903e+01 1.7770000000e+00 0.0000e+00 -1.0000e+00
       22  1    3    3    0    0 -1.9061040575e+01 +4.2801979322e+01 +8.4093220902e+01 9.6265271534e+01 0.0000000000e+00 0.0000e+00 -1.0000e+00
<mgrwt>
<rscale>  2 0.12500000E+03</rscale>
<asrwt>0</asrwt>
<pdfrwt beam="1">  1       21 0.28501435E-01 0.12500000E+03</pdfrwt>
<pdfrwt beam="2">  1       21 0.29639815E-02 0.12500000E+03</pdfrwt>
<totfact> 0.74828024E+06</totfact>
</mgrwt>
</event>
<event>
 6      0 +9.8758382e+01 1.25000000e+02 7.54677100e-03 1.12640300e-01
       21 -1    0    0  502  501 +0.0000000000e+00 +0.0000000000e+00 +6.3474662059e+01 6.3474662059e+01 0.0000000000e+00 0.0000e+00 -1.0000e+00
       21 -1    0    0  501  502 -0.0000000000e+00 -0.0000000000e+00 -6.1540304009e+01 6.1540304009e+01 0.0000000000e+00 0.0000e+00 -1.0000e+00
       25  2    1    2    0    0 +0.0000000000e+00 +0.0000000000e+00 +1.9343580505e+00 1.2501496607e+02 1.2500000000e+02 0.0000e+00 0.0000e+00
      -15  1    3    3    0    0 +6.6405935118e+00 -2.6177520347e+01 +1.3824744717e+01 3.0391468363e+01 1.7770000000e+00 0.0000e+00 -1.0000e+00
       15  1    3    3    0    0 -2.8110945796e+01 -2.4778280002e+01 +2.1440844402e+00 3.7575833463e+01 1.7770000000e+00 0.0000e+00 -1.0000e+00
       22  1    3    3    0    0 +2.1470352284e+01 +5.0955800348e+01 -1.4034471107e+01 5.7047664243e+01 0.0000000000e+00 0.0000e+00 -1.0000e+00
<mgrwt>
<rscale>  2 0.12500000E+03</rscale>
<asrwt>0</asrwt>
<pdfrwt beam="1">  1       21 0.93345091E-02 0.12500000E+03</pdfrwt>
<pdfrwt beam="2">  1       21 0.90500447E-02 0.12500000E+03</pdfrwt>
<totfact> 0.88999089E+06</totfact>
</mgrwt>
</event>
<event>
 6      0 +9.8758382e+01 1.25000000e+02 7.54677100e-03 1.12640300e-01
       21 -1    0    0  502  501 +0.0000000000e+00 +0.0000000000e+00 +9.2291526921e+00 9.2291526921e+00 0.0000000000e+00 0.0000e+00 -1.0000e+00
       21 -1    0    0  501  502 -0.0000000000e+00 -0.0000000000e+00 -4.2325120521e+02 4.2325120521e+02 0.0000000000e+00 0.0000e+00 -1.0000e+00
       25  2    1    2    0    0 +0.0000000000e+00 +0.0000000000e+00 -4.1402205252e+02 4.3248035790e+02 1.2500000000e+02 0.0000e+00 0.0000e+00
      -15  1    3    3    0    0 -8.5503620694e+00 -6.7060272278e+00 -1.5431647233e+02 1.5470879372e+02 1.7770000000e+00 0.0000e+00 -1.0000e+00
       15  1    3    3    0    0 -3.7061013680e+01 +2.1018230889e+01 -6.8567456624e+01 8.0746136760e+01 1.7770000000e+00 0.0000e+00 -1.0000e+00
       22  1    3    3    0    0 +4.5611375750e+01 -1.4312203662e+01 -1.9113812361e+02 1.9702542747e+02 0.0000000000e+00 0.0000e+00 -1.0000e+00
<mgrwt>
<rscale>  2 0.12500000E+03</rscale>
<asrwt>0</asrwt>
<pdfrwt beam="1">  1       21 0.13572287E-02 0.12500000E+03</pdfrwt>
<pdfrwt beam="2">  1       21 0.62242809E-01 0.12500000E+03</pdfrwt>
<totfact> 0.50758282E+06</totfact>
</mgrwt>
</event>
<event>
 6      0 +9.8758382e+01 1.25000000e+02 7.54677100e-03 1.12640300e-01
       21 -1    0    0  502  501 +0.0000000000e+00 +0.0000000000e+00 +3.4600993607e+01 3.4600993607e+01 0.0000000000e+00 0.0000e+00 1.0000e+00
       21 -1    0    0  501  502 -0.0000000000e+00 -0.0000000000e+00 -1.1289415687e+02 1.1289415687e+02 0.0000000000e+00 0.0000e+00 1.0000e+00
       25  2    1    2    0    0 +0.0000000000e+00 +0.0000000000e+00 -7.8293163260e+01 1.4749515047e+02 1.2500000000e+02 0.0000e+00 0.0000e+00
      -15  1    3    3    0    0 -2.1324831151e-01 -2.6494568044e+01 -1.5624507743e+01 3.0810559584e+01 1.7770000000e+00 0.0000e+00 -1.0000e+00
       15  1    3    3    0    0 -4.3673689289e+01 +2.9979059001e+00 -1.1502259521e+01 4.5297221537e+01 1.7770000000e+00 0.0000e+00 -1.0000e+00
       22  1    3    3    0    0 +4.3886937600e+01 +2.3496662144e+01 -5.1166395997e+01 7.1387369353e+01 0.0000000000e+00 0.0000e+00 -1.0000e+00
<mgrwt>
<rscale>  2 0.12500000E+03</rscale>
<asrwt>0</asrwt>
<pdfrwt beam="1">  1       21 0.50883815E-02 0.12500000E+03</pdfrwt>
<pdfrwt beam="2">  1       21 0.16602082E-01 0.12500000E+03</pdfrwt>
<totfact> 0.85048014E+06</totfact>
</mgrwt>
</event>
<event>
 6      0 +9.8758382e+01 1.25000000e+02 7.54677100e-03 1.12640300e-01
       21 -1    0    0  502  501 +0.0000000000e+00 +0.0000000000e+00 +1.3697753969e+02 1.3697753969e+02 0.0000000000e+00 0.0000e+00 -1.0000e+00
       21 -1    0    0  501  502 -0.0000000000e+00 -0.0000000000e+00 -2.8517448984e+01 2.8517448984e+01 0.0000000000e+00 0.0000e+00 -1.0000e+00
       25  2    1    2    0    0 +0.0000000000e+00 +0.0000000000e+00 +1.0846009070e+02 1.6549498867e+02 1.2500000000e+02 0.0000e+00 0.0000e+00
      -15  1    3    3    0    0 -2.4876945410e+01 +2.0522415013e+01 +4.3161692555e+01 5.3908453550e+01 1.7770000000e+00 0.0000e+00 -1.0000e+00
       15  1    3    3    0    0 +3.6956327415e+01 +2.2335789251e+01 +4.5814553980e+01 6.2982447577e+01 1.7770000000e+00 0.0000e+00 -1.0000e+00
       22  1    3    3    0    0 -1.2079382005e+01 -4.2858204264e+01 +1.9483844165e+01 4.8604087542e+01 0.0000000000e+00 0.0000e+00 -1.0000e+00
<mgrwt>
<rscale>  2 0.12500000E+03</rscale>
<asrwt>0</asrwt>
<pdfrwt beam="1">  1       21 0.20143756E-01 0.12500000E+03</pdfrwt>
<pdfrwt beam="2">  1       21 0.41937426E-02 0.12500000E+03</pdfrwt>
<totfact> 0.82086065E+06</totfact>
</mgrwt>
</event>
<event>
 6      0 +9.8758382e+01 1.25000000e+02 7.54677100e-03 1.12640300e-01
       21 -1    0    0  502  501 +0.0000000000e+00 +0.0000000000e+00 +1.1372135271e+02 1.1372135271e+02 0.0000000000e+00 0.0000e+00 -1.0000e+00
       21 -1    0    0  501  502 -0.0000000000e+00 -0.0000000000e+00 -3.4349310020e+01 3.4349310020e+01 0.0000000000e+00 0.0000e+00 -1.0000e+00
       25  2    1    2    0    0 +0.0000000000e+00 +0.0000000000e+00 +7.9372042686e+01 1.4807066273e+02 1.2500000000e+02 0.0000e+00 0.0000e+00
      -15  1    3    3    0    0 -4.6490006808e+01 +2.1943782698e+00 +2.5717607009e+01 5.3204220399e+01 1.7770000000e+00 0.0000e+00 -1.0000e+00
       15  1    3    3    0    0 +1.7799074001e+01 +2.9426810571e+01 +3.1921603423e+01 4.6956263796e+01 1.7770000000e+00 0.0000e+00 -1.0000e+00
       22  1    3    3    0    0 +2.8690932807e+01 -3.1621188840e+01 +2.1732832251e+01 4.7910178529e+01 0.0000000000e+00 0.0000e+00 -1.0000e+00
<mgrwt>
<rscale>  2 0.12500000E+03</rscale>
<asrwt>0</asrwt>
<pdfrwt beam="1">  1       21 0.16723728E-01 0.12500000E+03</pdfrwt>
<pdfrwt beam="2">  1       21 0.50513692E-02 0.12500000E+03</pdfrwt>
<totfact> 0.84950475E+06</totfact>
</mgrwt>
</event>
<event>
 6      0 +9.8758382e+01 1.25000000e+02 7.54677100e-03 1.12640300e-01
       21 -1    0    0  502  501 +0.0000000000e+00 +0.0000000000e+00 +1.8093304351e+02 1.8093304351e+02 0.0000000000e+00 0.0000e+00 1.0000e+00
       21 -1    0    0  501  502 -0.0000000000e+00 -0.0000000000e+00 -2.1589478209e+01 2.1589478209e+01 0.0000000000e+00 0.0000e+00 1.0000e+00
       25  2    1    2    0    0 +0.0000000000e+00 +0.0000000000e+00 +1.5934356530e+02 2.0252252172e+02 1.2500000000e+02 0.0000e+00 0.0000e+00
      -15  1    3    3    0    0 +1.3319393439e+01 +6.1117122158e+00 -1.6229311527e+01 2.1938722602e+01 1.7770000000e+00 0.0000e+00 -1.0000e+00
       15  1    3    3    0    0 -1.1355025479e+01 +1.0151252080e+01 +1.4578113870e+02 1.4658541077e+02 1.7770000000e+00 0.0000e+00 -1.0000e+00
       22  1    3    3    0    0 -1.9643679597e+00 -1.6262964296e+01 +2.9791738124e+01 3.3998388339e+01 0.0000000000e+00 0.0000e+00 -1.0000e+00
<mgrwt>
<rscale>  2 0.12500000E+03</rscale>
<asrwt>0</asrwt>
<pdfrwt beam="1">  1       21 0.26607800E-01 0.12500000E+03</pdfrwt>
<pdfrwt beam="2">  1       21 0.31749234E-02 0.12500000E+03</pdfrwt>
<totfact> 0.76452436E+06</totfact>
</mgrwt>
</event>
<event>
 6      0 +9.8758382e+01 1.25000000e+02 7.54677100e-03 1.12640300e-01
       21 -1    0    0  502  501 +0.0000000000e+00 +0.0000000000e+00 +1.6712074455e+01 1.6712074455e+01 0.0000000000e+00 0.0000e+00 -1.0000e+00
       21 -1    0    0  501  502 -0.0000000000e+00 -0.0000000000e+00 -2.3373818794e+02 2.3373818794e+02 0.0000000000e+00 0.0000e+00 -1.0000e+00
       25  2    1    2    0    0 +0.0000000000e+00 +0.0000000000e+00 -2.1702611349e+02 2.5045026240e+02 1.2500000000e+02 0.0000e+00 0.0000e+00
      -15  1    3    3    0    0 +2.0881911891e+01 +2.0933214377e+01 -5.3522852338e+01 6.1172764853e+01 1.7770000000e+00 0.0000e+00 -1.0000e+00
       15  1    3    3    0    0 +3.5817870925e+00 -4.9515891970e+01 -5.3447488199e+01 7.2968791138e+01 1.7770000000e+00 0.0000e+00 -1.0000e+00
       22  1    3    3    0    0 -2.4463698984e+01 +2.8582677593e+01 -1.1005577296e+02 1.1630870641e+02 0.0000000000e+00 0.0000e+00 -1.0000e+00
<mgrwt>
<rscale>  2 0.12500000E+03</rscale>
<asrwt>0</asrwt>
<pdfrwt beam="1">  1       21 0.24576583E-02 0.12500000E+03</pdfrwt>
<pdfrwt beam="2">  1       21 0.34373259E-01 0.12500000E+03</pdfrwt>
<totfact> 0.69945308E+06</totfact>
</mgrwt>
</event>
<event>
 6      0 +9.8758382e+01 1.25000000e+02 7.54677100e-03 1.12640300e-01
       21 -1    0    0  502  501 +0.0000000000e+00 +0.0000000000e+00 +5.5303896232e+02 5.5303896232e+02 0.0000000000e+00 0.0000e+00 1.0000e+00
       21 -1    0    0  501  502 -0.0000000000e+00 -0.0000000000e+00 -7.0632455688e+00 7.0632455688e+00 0.0000000000e+00 0.0000e+00 1.0000e+00
       25  2    1    2    0    0 +0.0000000000e+00 +0.0000000000e+00 +5.4597571676e+02 5.6010220789e+02 1.2500000000e+02 0.0000e+00 0.0000e+00
      -15  1    3    3    0    0 +1.0515623273e+01 +3.5487364872e+01 +9.0836210197e+01 9.8103548408e+01 1.7770000000e+00 0.0000e+00 -1.0000e+00
       15  1    3    3    0    0 -5.1457596270e+00 -2.4895267434e+01 +4.5212875451e+01 5.1900048346e+01 1.7770000000e+00 0.0000e+00 -1.0000e+00
       22  1    3    3    0    0 -5.3698636458e+00 -1.0592097438e+01 +4.0992663125e+02 4.1009861128e+02 0.0000000000e+00 0.0000e+00 -1.0000e+00
<mgrwt>
<rscale>  2 0.12500000E+03</rscale>
<asrwt>0</asrwt>
<pdfrwt beam="1">  1       21 0.81329229E-01 0.12500000E+03</pdfrwt>
<pdfrwt beam="2">  1       21 0.10387130E-02 0.12500000E+03</pdfrwt>
<totfact> 0.41118306E+06</totfact>
</mgrwt>
</event>
<event>
 6      0 +9.8758382e+01 1.25000000e+02 7.54677100e-03 1.12640300e-01
       21 -1    0    0  502  501 +0.0000000000e+00 +0.0000000000e+00 +1.4740443657e+01 1.4740443657e+01 0.0000000000e+00 0.0000e+00 1.0000e+00
       21 -1    0    0  501  502 -0.0000000000e+00 -0.0000000000e+00 -2.6500220012e+02 2.6500220012e+02 0.0000000000e+00 0.0000e+00 1.0000e+00
       25  2    1    2    0    0 +0.0000000000e+00 +0.0000000000e+00 -2.5026175647e+02 2.7974264378e+02 1.2500000000e+02 0.0000e+00 0.0000e+00
      -15  1    3    3    0    0 +7.5065958677e+00 +1.6318606573e+01 -2.2751902560e+01 2.9042257163e+01 1.7770000000e+00 0.0000e+00 -1.0000e+00
       15  1    3    3    0    0 -1.0180941615e+01 +2.3215508004e+01 -6.5865245889e+00 2.6251693644e+01 1.7770000000e+00 0.0000e+00 -1.0000e+00
       22  1    3    3    0    0 +2.6743457469e+00 -3.9534114576e+01 -2.2092332934e+02 2.2444869299e+02 0.0000000000e+00 0.0000e+00 -1.0000e+00
<mgrwt>
<rscale>  2 0.12500000E+03</rscale>
<asrwt>0</asrwt>
<pdfrwt beam="1">  1       21 0.21677123E-02 0.12500000E+03</pdfrwt>
<pdfrwt beam="2">  1       21 0.38970911E-01 0.12500000E+03</pdfrwt>
<totfact> 0.66322105E+06</totfact>
</mgrwt>
</event>
<event>
 6      0 +9.8758382e+01 1.25000000e+02 7.54677100e-03 1.12640300e-01
       21 -1    0    0  502  501 +0.0000000000e+00 +0.0000000000e+00 +1.9214685502e+01 1.9214685502e+01 0.0000000000e+00 0.0000e+00 1.0000e+00
       21 -1    0    0  501  502 -0.0000000000e+00 -0.0000000000e+00 -2.0329502659e+02 2.0329502659e+02 0.0000000000e+00 0.0000e+00 1.0000e+00
       25  2    1    2    0    0 +0.0000000000e+00 +0.0000000000e+00 -1.8408034108e+02 2.2250971209e+02 1.2500000000e+02 0.0000e+00 0.0000e+00
      -15  1    3    3    0    0 +1.2385927427e+01 -9.8332753365e+00 -2.7238694026e+00 1.6145640142e+01 1.7770000000e+00 0.0000e+00 -1.0000e+00
       15  1    3    3    0    0 +3.6199404765e+01 +2.4418625529e+00 -2.9629679025e+01 4.6876808831e+01 1.7770000000e+00 0.0000e+00 -1.0000e+00
       22  1    3    3    0    0 -4.8585332192e+01 +7.3914127837e+00 -1.5172679264e+02 1.5948726310e+02 0.0000000000e+00 0.0000e+00 -1.0000e+00
<mgrwt>
<rscale>  2 0.12500000E+03</rscale>
<asrwt>0</asrwt>
<pdfrwt beam="1">  1       21 0.28256890E-02 0.12500000E+03</pdfrwt>
<pdfrwt beam="2">  1       21 0.29896328E-01 0.12500000E+03</pdfrwt>
<totfact> 0.73649998E+06</totfact>
</mgrwt>
</event>
<event>
 6      0 +9.8758382e+01 1.25000000e+02 7.54677100e-03 1.12640300e-01
       21 -1    0    0  502  501 +0.0000000000e+00 +0.0000000000e+00 +6.0555781205e+00 6.0555781205e+00 0.0000000000e+00 0.0000e+00 -1.0000e+00
       21 -1    0    0  501  502 -0.0000000000e+00 -0.0000000000e+00 -6.4506640361e+02 6.4506640361e+02 0.0000000000e+00 0.0000e+00 -1.0000e+00
       25  2    1    2    0    0 +0.0000000000e+00 +0.0000000000e+00 -6.3901082549e+02 6.5112198173e+02 1.2500000000e+02 0.0000e+00 0.0000e+00
      -15  1    3    3    0    0 +2.2691678575e+01 +3.1191805048e+01 -1.9395144010e+02 1.9775783126e+02 1.7770000000e+00 0.0000e+00 -1.0000e+00
       15  1    3    3    0    0 +2.0783169623e+01 +1.1234672031e+01 -1.7237066351e+02 1.7399126806e+02 1.7770000000e+00 0.0000e+00 -1.0000e+00
       22  1    3    3    0    0 -4.3474848198e+01 -4.2426477079e+01 -2.7268872191e+02 2.7937288243e+02 0.0000000000e+00 0.0000e+00 -1.0000e+00
<mgrwt>
<rscale>  2 0.12500000E+03</rscale>
<asrwt>0</asrwt>
<pdfrwt beam="1">  1       21 0.89052587E-03 0.12500000E+03</pdfrwt>
<pdfrwt beam="2">  1       21 0.94862741E-01 0.12500000E+03</pdfrwt>
<totfact> 0.35492538E+06</totfact>
</mgrwt>
</event>
<event>
 6      0 +9.8758382e+01 1.25000000e+02 7.54677100e-03 1.12640300e-01
       21 -1    0    0  502  501 +0.0000000000e+00 +0.0000000000e+00 +8.9603659998e+01 8.9603659998e+01 0.0000000000e+00 0.0000e+00 -1.0000e+00
       21 -1    0    0  501  502 -0.0000000000e+00 -0.0000000000e+00 -4.3594759412e+01 4.3594759412e+01 0.0000000000e+00 0.0000e+00 -1.0000e+00
       25  2    1    2    0    0 +0.0000000000e+00 +0.0000000000e+00 +4.6008900586e+01 1.3319841941e+02 1.2500000000e+02 0.0000e+00 0.0000e+00
      -15  1    3    3    0    0 +9.1642007411e+00 -6.1667336361e+00 -3.4828812087e+01 3.6581621881e+01 1.7770000000e+00 0.0000e+00 -1.0000e+00
       15  1    3    3    0    0 +8.4204029461e+00 +1.8840762218e+01 +1.0918509778e+01 2.3414719548e+01 1.7770000000e+00 0.0000e+00 -1.0000e+00
       22  1    3    3    0    0 -1.7584603687e+01 -1.2674028581e+01 +6.9919202896e+01 7.3202077982e+01 0.0000000000e+00 0.0000e+00 -1.0000e+00
<mgrwt>
<rscale>  2 0.12500000E+03</rscale>
<asrwt>0</asrwt>
<pdfrwt beam="1">  1       21 0.13177009E-01 0.12500000E+03</pdfrwt>
<pdfrwt beam="2">  1       21 0.64109941E-02 0.12500000E+03</pdfrwt>
<totfact> 0.87522893E+06</totfact>
</mgrwt>
</event>
<event>
 6      0 +9.8758382e+01 1.25000000e+02 7.54677100e-03 1.12640300e-01
       21 -1    0    0  502  501 +0.0000000000e+00 +0.0000000000e+00 +2.2104254403e+02 2.2104254403e+02 0.0000000000e+00 0.0000e+00 -1.0000e+00
       21 -1    0    0  501  502 -0.0000000000e+00 -0.0000000000e+00 -1.7671937396e+01 1.7671937396e+01 0.0000000000e+00 0.0000e+00 -1.0000e+00
       25  2    1    2    0    0 +0.0000000000e+00 +0.0000000000e+00 +2.0337060664e+02 2.3871448143e+02 1.2500000000e+02 0.0000e+00 0.0000e+00
      -15  1    3    3    0    0 -3.8099180904e+01 +2.2409123138e+01 +5.9532816690e+01 7.4168931349e+01 1.7770000000e+00 0.0000e+00 -1.0000e+00
       15  1    3    3    0    0 -1.2618598188e+01 -3.9176548024e+00 +2.9287765374e+00 1.3649633710e+01 1.7770000000e+00 0.0000e+00 -1.0000e+00
       22  1    3    3    0    0 +5.0717779091e+01 -1.8491468336e+01 +1.4090901342e+02 1.5089591638e+02 0.0000000000e+00 0.0000e+00 -1.0000e+00
<mgrwt>
<rscale>  2 0.12500000E+03</rscale>
<asrwt>0</asrwt>
<pdfrwt beam="1">  1       21 0.32506255E-01 0.12500000E+03</pdfrwt>
<pdfrwt beam="2">  1       21 0.25988144E-02 0.12500000E+03</pdfrwt>
<totfact> 0.71476476E+06</totfact>
</mgrwt>
</event>
<event>
 6      0 +9.8758382e+01 1.25000000e+02 7.54677100e-03 1.12640300e-01
       21 -1    0    0  502  501 +0.0000000000e+00 +0.0000000000e+00 +1.2132946674e+01 1.2132946674e+01 0.0000000000e+00 0.0000e+00 1.0000e+00
       21 -1    0    0  501  502 -0.0000000000e+00 -0.0000000000e+00 -3.2195394119e+02 3.2195394119e+02 0.0000000000e+00 0.0000e+00 1.0000e+00
       25  2    1    2    0    0 +0.0000000000e+00 +0.0000000000e+00 -3.0982099452e+02 3.3408688787e+02 1.2500000000e+02 0.0000e+00 0.0000e+00
      -15  1    3    3    0    0 -9.9294009142e+00 +5.4153012412e+00 -4.5131859881e+01 4.6561368057e+01 1.7770000000e+00 0.0000e+00 -1.0000e+00
       15  1    3    3    0    0 -2.2589885250e+01 -2.3819612237e+01 -2.4111171126e+02 2.4334274568e+02 1.7770000000e+00 0.0000e+00 -1.0000e+00
       22  1    3    3    0    0 +3.2519286164e+01 +1.8404310995e+01 -2.3577423370e+01 4.4182774116e+01 0.0000000000e+00 0.0000e+00 -1.0000e+00
<mgrwt>
<rscale>  2 0.12500000E+03</rscale>
<asrwt>0</asrwt>
<pdfrwt beam="1">  1       21 0.17842568E-02 0.12500000E+03</pdfrwt>
<pdfrwt beam="2">  1       21 0.47346168E-01 0.12500000E+03</pdfrwt>
<totfact> 0.60187710E+06</totfact>
</mgrwt>
</event>
<event>
 6      0 +9.8758382e+01 1.25000000e+02 7.54677100e-03 1.12640300e-01
       21 -1    0    0  502  501 +0.0000000000e+00 +0.0000000000e+00 +2.5845822145e+02 2.5845822145e+02 0.0000000000e+00 0.0000e+00 1.0000e+00
       21 -1    0    0  501  502 -0.0000000000e+00 -0.0000000000e+00 -1.5113661226e+01 1.5113661226e+01 0.0000000000e+00 0.0000e+00 1.0000e+00
       25  2    1    2    0    0 +0.0000000000e+00 +0.0000000000e+00 +2.4334456022e+02 2.7357188267e+02 1.2500000000e+02 0.0000e+00 0.0000e+00
      -15  1    3    3    0    0 +1.0056323919e+01 +2.0114985580e+01 +7.9591437913e+00 2.3921705511e+01 1.7770000000e+00 0.0000e+00 -1.0000e+00
       15  1    3    3    0    0 +5.6178297996e+00 +2.3911118198e+01 +1.5269104592e+02 1.5466420019e+02 1.7770000000e+00 0.0000e+00 -1.0000e+00
       22  1    3    3    0    0 -1.5674153718e+01 -4.4026103777e+01 +8.2694370515e+01 9.4985976983e+01 0.0000000000e+00 0.0000e+00 -1.0000e+00
<mgrwt>
<rscale>  2 0.12500000E+03</rscale>
<asrwt>0</asrwt>
<pdfrwt beam="1">  1       21 0.38008559E-01 0.12500000E+03</pdfrwt>
<pdfrwt beam="2">  1       21 0.22225974E-02 0.12500000E+03</pdfrwt>
<totfact> 0.67063984E+06</totfact>
</mgrwt>
</event>
<event>
 6      0 +9.8758382e+01 1.25000000e+02 7.54677100e-03 1.12640300e-01
       21 -1    0    0  502  501 +0.0000000000e+00 +0.0000000000e+00 +1.2460733613e+03 1.2460733613e+03 0.0000000000e+00 0.0000e+00 1.0000e+00
       21 -1    0    0  501  502 -0.0000000000e+00 -0.0000000000e+00 -3.1348475308e+00 3.1348475308e+00 0.0000000000e+00 0.0000e+00 1.0000e+00
       25  2    1    2    0    0 +0.0000000000e+00 +0.0000000000e+00 +1.2429385138e+03 1.2492082089e+03 1.2500000000e+02 0.0000e+00 0.0000e+00
      -15  1    3    3    0    0 -3.6120728307e+01 +1.0853086175e+01 +5.6809293607e+02 5.6934632539e+02 1.7770000000e+00 0.0000e+00 -1.0000e+00
       15  1    3    3    0    0 -1.3285856259e+01 +1.0817169028e+01 +3.6117776321e+02 3.6158824578e+02 1.7770000000e+00 0.0000e+00 -1.0000e+00
       22  1    3    3    0    0 +4.9406584566e+01 -2.1670255203e+01 +3.1366781071e+02 3.1827363390e+02 0.0000000000e+00 0.0000e+00 -1.0000e+00
<mgrwt>
<rscale>  2 0.12500000E+03</rscale>
<asrwt>0</asrwt>
<pdfrwt beam="1">  1       21 0.18324574E+00 0.12500000E+03</pdfrwt>
<pdfrwt beam="2">  1       21 0.46100786E-03 0.12500000E+03</pdfrwt>
<totfact> 0.14974774E+06</totfact>
</mgrwt>
</event>
<event>
 6      0 +9.8758382e+01 1.25000000e+02 7.54677100e-03 1.12640300e-01
       21 -1    0    0  502  501 +0.0000000000e+00 +0.0000000000e+00 +4.7082490431e+02 4.7082490431e+02 0.0000000000e+00 0.0000e+00 -1.0000e+00
       21 -1    0    0  501  502 -0.0000000000e+00 -0.0000000000e+00 -8.2966087057e+00 8.2966087057e+00 0.0000000000e+00 0.0000e+00 -1.0000e+00
       25  2    1    2    0    0 +0.0000000000e+00 +0.0000000000e+00 +4.6252829561e+02 4.7912151302e+02 1.2500000000e+02 0.0000e+00 0.0000e+00
      -15  1    3    3    0    0 -3.6496563928e+01 -3.0442689457e+00 +1.8476769456e+02 1.8837071278e+02 1.7770000000e+00 0.0000e+00 -1.0000e+00
       15  1    3    3    0    0 +2.5643960414e+01 -1.3220030987e+01 +2.8058116146e+01 4.0283961271e+01 1.7770000000e+00 0.0000e+00 -1.0000e+00
       22  1    3    3    0    0 +1.0852603514e+01 +1.6264299933e+01 +2.4970248492e+02 2.5046683899e+02 0.0000000000e+00 0.0000e+00 -1.0000e+00
<mgrwt>
<rscale>  2 0.12500000E+03</rscale>
<asrwt>0</asrwt>
<pdfrwt beam="1">  1       21 0.69238938E-01 0.12500000E+03</pdfrwt>
<pdfrwt beam="2">  1       21 0.12200898E-02 0.12500000E+03</pdfrwt>
<totfact> 0.46920874E+06</totfact>
</mgrwt>
</event>
<event>
 6      0 +9.8758382e+01 1.25000000e+02 7.54677100e-03 1.12640300e-01
       21 -1    0    0  502  501 +0.0000000000e+00 +0.0000000000e+00 +9.4946590834e+00 9.4946590834e+00 0.0000000000e+00 0.0000e+00 1.0000e+00
       21 -1    0    0  501  502 -0.0000000000e+00 -0.0000000000e+00 -4.1141550904e+02 4.1141550904e+02 0.0000000000e+00 0.0000e+00 1.0000e+00
       25  2    1    2    0    0 +0.0000000000e+00 +0.0000000000e+00 -4.0192084996e+02 4.2091016813e+02 1.2500000000e+02 0.0000e+00 0.0000e+00
      -15  1    3    3    0    0 -2.0044588447e+01 +4.4924400029e+01 -2.5647370254e+02 2.6115494456e+02 1.7770000000e+00 0.0000e+00 -1.0000e+00
       15  1    3    3    0    0 +2.4735905679e+00 -7.9006706938e+00 +1.8222396564e-01 8.4693672877e+00 1.7770000000e+00 0.0000e+00 -1.0000e+00
       22  1    3    3    0    0 +1.7570997879e+01 -3.7023729335e+01 -1.4562937135e+02 1.5128585625e+02 0.0000000000e+00 0.0000e+00 -1.0000e+00
<mgrwt>
<rscale>  2 0.12500000E+03</rscale>
<asrwt>0</asrwt>
<pdfrwt beam="1">  1       21 0.13962735E-02 0.12500000E+03</pdfrwt>
<pdfrwt beam="2">  1       21 0.60502275E-01 0.12500000E+03</pdfrwt>
<totfact> 0.51767521E+06</totfact>
</mgrwt>
</event>
<event>
 6      0 +9.8758382e+01 1.25000000e+02 7.54677100e-03 1.12640300e-01
       21 -1    0    0  502  501 +0.0000000000e+00 +0.0000000000e+00 +1.0945670303e+02 1.0945670303e+02 0.0000000000e+00 0.0000e+00 1.0000e+00
       21 -1    0    0  501  502 -0.0000000000e+00 -0.0000000000e+00 -3.5687627089e+01 3.5687627089e+01 0.0000000000e+00 0.0000e+00 1.0000e+00
       25  2    1    2    0    0 +0.0000000000e+00 +0.0000000000e+00 +7.3769075938e+01 1.4514433012e+02 1.2500000000e+02 0.0000e+00 0.0000e+00
      -15  1    3    3    0    0 +2.8975084885e+01 +3.0102742006e+00 +1.3111187300e+01 3.1994972359e+01 1.7770000000e+00 0.0000e+00 -1.0000e+00
       15  1    3    3    0    0 +3.0758832811e+01 +4.2643626516e-01 +3.8576773340e+01 4.9372186645e+01 1.7770000000e+00 0.0000e+00 -1.0000e+00
       22  1    3    3    0    0 -5.9733917696e+01 -3.4367104658e+00 +2.2081115294e+01 6.3777171109e+01 0.0000000000e+00 0.0000e+00 -1.0000e+00
<mgrwt>
<rscale>  2 0.12500000E+03</rscale>
<asrwt>0</asrwt>
<pdfrwt beam="1">  1       21 0.16096574E-01 0.12500000E+03</pdfrwt>
<pdfrwt beam="2">  1       21 0.52481805E-02 0.12500000E+03</pdfrwt>
<totfact> 0.85449446E+06</totfact>
</mgrwt>
</event>
<event>
 6      0 +9.8758382e+01 1.25000000e+02 7.54677100e-03 1.12640300e-01
       21 -1    0    0  502  501 +0.0000000000e+00 +0.0000000000e+00 +3.5426728375e+01 3.5426728375e+01 0.0000000000e+00 0.0000e+00 -1.0000e+00
       21 -1    0    0  501  502 -0.0000000000e+00 -0.0000000000e+00 -1.1026279251e+02 1.1026279251e+02 0.0000000000e+00 0.0000e+00 -1.0000e+00
       25  2    1    2    0    0 +0.0000000000e+00 +0.0000000000e+00 -7.4836064132e+01 1.4568952088e+02 1.2500000000e+02 0.0000e+00 0.0000e+00
      -15  1    3    3    0    0 -1.4235826462e+01 +4.8247089366e+01 -1.9761187962e+01 5.4074972640e+01 1.7770000000e+00 0.0000e+00 -1.0000e+00
       15  1    3    3    0    0 +4.3963541354e+00 -1.4949949540e+01 +9.4717299107e+00 1.8322126444e+01 1.7770000000e+00 0.0000e+00 -1.0000e+00
       22  1    3    3    0    0 +9.8394723263e+00 -3.3297139826e+01 -6.4546606083e+01 7.3292421799e+01 0.0000000000e+00 0.0000e+00 -1.0000e+00
<mgrwt>
<rscale>  2 0.12500000E+03</rscale>
<asrwt>0</asrwt>
<pdfrwt beam="1">  1       21 0.52098131E-02 0.12500000E+03</pdfrwt>
<pdfrwt beam="2">  1       21 0.16215116E-01 0.12500000E+03</pdfrwt>
<totfact> 0.85355901E+06</totfact>
</mgrwt>
</event>
<event>
 6      0 +9.8758382e+01 1.25000000e+02 7.54677100e-03 1.12640300e-01
       21 -1    0    0  502  501 +0.0000000000e+00 +0.0000000000e+00 +1.4901351089e+01 1.4901351089e+01 0.0000000000e+00 0.0000e+00 -1.0000e+00
       21 -1    0    0  501  502 -0.0000000000e+00 -0.0000000000e+00 -2.6214065937e+02 2.6214065937e+02 0.0000000000e+00 0.0000e+00 -1.0000e+00
       25  2    1    2    0    0 +0.0000000000e+00 +0.0000000000e+00 -2.4723930828e+02 2.7704201046e+02 1.2500000000e+02 0.0000e+00 0.0000e+00
      -15  1    3    3    0    0 -1.9354345190e+01 +3.0258298129e+01 -7.7184071894e+01 8.5151006844e+01 1.7770000000e+00 0.0000e+00 -1.0000e+00
       15  1    3    3    0    0 -1.7484836969e+01 -3.4136931061e+01 -3.5367342965e+01 5.2202071448e+01 1.7770000000e+00 0.0000e+00 -1.0000e+00
       22  1    3    3    0    0 +3.6839182159e+01 +3.8786329320e+00 -1.3468789341e+02 1.3968893216e+02 0.0000000000e+00 0.0000e+00 -1.0000e+00
<mgrwt>
<rscale>  2 0.12500000E+03</rscale>
<asrwt>0</asrwt>
<pdfrwt beam="1">  1       21 0.21913751E-02 0.12500000E+03</pdfrwt>
<pdfrwt beam="2">  1       21 0.38550098E-01 0.12500000E+03</pdfrwt>
<totfact> 0.66645491E+06</totfact>
</mgrwt>
</event>
<event>
 6      0 +9.8758382e+01 1.25000000e+02 7.54677100e-03 1.12640300e-01
       21 -1    0    0  502  501 +0.0000000000e+00 +0.0000000000e+00 +2.0526470424e+02 2.0526470424e+02 0.0000000000e+00 0.0000e+00 1.0000e+00
       21 -1    0    0  501  502 -0.0000000000e+00 -0.0000000000e+00 -1.9030305354e+01 1.9030305354e+01 0.0000000000e+00 0.0000e+00 1.0000e+00
       25  2    1    2    0    0 +0.0000000000e+00 +0.0000000000e+00 +1.8623439889e+02 2.2429500959e+02 1.2500000000e+02 0.0000e+00 0.0000e+00
      -15  1    3    3    0    0 -6.5660313054e+00 -7.0966734905e+00 +8.3228276877e+01 8.3806797711e+01 1.7770000000e+00 0.0000e+00 -1.0000e+00
       15  1    3    3    0    0 +8.6903883665e+00 -9.0802279502e+00 +1.1778925593e+02 1.1847126205e+02 1.7770000000e+00 0.0000e+00 -1.0000e+00
       22  1    3    3    0    0 -2.1243570611e+00 +1.6176901441e+01 -1.4783133896e+01 2.2016949855e+01 0.0000000000e+00 0.0000e+00 -1.0000e+00
<mgrwt>
<rscale>  2 0.12500000E+03</rscale>
<asrwt>0</asrwt>
<pdfrwt beam="1">  1       21 0.30185985E-01 0.12500000E+03</pdfrwt>
<pdfrwt beam="2">  1       21 0.27985744E-02 0.12500000E+03</pdfrwt>
<totfact> 0.73407155E+06</totfact>
</mgrwt>
</event>
<event>
 6      0 +9.8758382e+01 1.25000000e+02 7.54677100e-03 1.12640300e-01
       21 -1    0    0  502  501 +0.0000000000e+00 +0.0000000000e+00 +1.2394367315e+01 1.2394367315e+01 0.0000000000e+00 0.0000e+00 1.0000e+00
       21 -1    0    0  501  502 -0.0000000000e+00 -0.0000000000e+00 -3.1516332384e+02 3.1516332384e+02 0.0000000000e+00 0.0000e+00 1.0000e+00
       25  2    1    2    0    0 +0.0000000000e+00 +0.0000000000e+00 -3.0276895653e+02 3.2755769116e+02 1.2500000000e+02 0.0000e+00 0.0000e+00
      -15  1    3    3    0    0 +3.4406887170e+00 -1.5289746177e+01 -3.1548557730e+01 3.5271573552e+01 1.7770000000e+00 0.0000e+00 -1.0000e+00
       15  1    3    3    0    0 +2.7511121479e+01 -2.6358927562e+01 -2.0311391177e+02 2.0666415691e+02 1.7770000000e+00 0.0000e+00 -1.0000e+00
       22  1    3    3    0    0 -3.0951810196e+01 +4.1648673739e+01 -6.8106487035e+01 8.5621960705e+01 0.0000000000e+00 0.0000e+00 -1.0000e+00
<mgrwt>
<rscale>  2 0.12500000E+03</rscale>
<asrwt>0</asrwt>
<pdfrwt beam="1">  1       21 0.18227012E-02 0.12500000E+03</pdfrwt>
<pdfrwt beam="2">  1       21 0.46347545E-01 0.12500000E+03</pdfrwt>
<totfact> 0.60885476E+06</totfact>
</mgrwt>
</event>
<event>
 6      0 +9.8758382e+01 1.25000000e+02 7.54677100e-03 1.12640300e-01
       21 -1    0    0  502  501 +0.0000000000e+00 +0.0000000000e+00 +8.9853968684e+01 8.9853968684e+01 0.0000000000e+00 0.0000e+00 1.0000e+00
       21 -1    0    0  501  502 -0.0000000000e+00 -0.0000000000e+00 -4.3473316284e+01 4.3473316284e+01 0.0000000000e+00 0.0000e+00 1.0000e+00
       25  2    1    2    0    0 +0.0000000000e+00 +0.0000000000e+00 +4.6380652400e+01 1.3332728497e+02 1.2500000000e+02 0.0000e+00 0.0000e+00
      -15  1    3    3    0    0 +1.1432543788e+00 +1.7537297893e+01 -2.2951229983e+01 2.8961708077e+01 1.7770000000e+00 0.0000e+00 -1.0000e+00
       15  1    3    3    0    0 -2.2972501750e+01 -1.7088577514e+01 -2.9691489222e+00 2.8839710339e+01 1.7770000000e+00 0.0000e+00 -1.0000e+00
       22  1    3    3    0    0 +2.1829247372e+01 -4.4872037947e-01 +7.2301031304e+01 7.5525866552e+01 0.0000000000e+00 0.0000e+00 -1.0000e+00
<mgrwt>
<rscale>  2 0.12500000E+03</rscale>
<asrwt>0</asrwt>
<pdfrwt beam="1">  1       21 0.13213819E-01 0.12500000E+03</pdfrwt>
<pdfrwt beam="2">  1       21 0.63931347E-02 0.12500000E+03</pdfrwt>
<totfact> 0.87500082E+06</totfact>
</mgrwt>
</event>
<event>
 6      0 +9.8758382e+01 1.25000000e+02 7.54677100e-03 1.12640300e-01
       21 -1    0    0  502  501 +0.0000000000e+00 +0.0000000000e+00 +1.1023598678e+01 1.1023598678e+01 0.0000000000e+00 0.0000e+00 -1.0000e+00
       21 -1    0    0  501  502 -0.0000000000e+00 -0.0000000000e+00 -3.5435342978e+02 3.5435342978e+02 0.0000000000e+00 0.0000e+00 -1.0000e+00
       25  2    1    2    0    0 +0.0000000000e+00 +0.0000000000e+00 -3.4332983110e+02 3.6537702846e+02 1.2500000000e+02 0.0000e+00 0.0000e+00
      -15  1    3    3    0    0 +2.3717654145e+01 -5.8588862078e+00 -1.5143610875e+01 2.8798269828e+01 1.7770000000e+00 0.0000e+00 -1.0000e+00
       15  1    3    3    0    0 +5.5634706975e+00 -1.6757795824e+01 -2.2474400547e+01 2.8636206732e+01 1.7770000000e+00 0.0000e+00 -1.0000e+00
       22  1    3    3    0    0 -2.9281124842e+01 +2.2616682031e+01 -3.0571181964e+02 3.0794255186e+02 0.0000000000e+00 0.0000e+00 -1.0000e+00
<mgrwt>
<rscale>  2 0.12500000E+03</rscale>
<asrwt>0</asrwt>
<pdfrwt beam="1">  1       21 0.16211176E-02 0.12500000E+03</pdfrwt>
<pdfrwt beam="2">  1       21 0.52110795E-01 0.12500000E+03</pdfrwt>
<totfact> 0.56977568E+06</totfact>
</mgrwt>
</event>
<event>
 6      0 +9.8758382e+01 1.25000000e+02 7.54677100e-03 1.12640300e-01
       21 -1    0    0  502  501 +0.0000000000e+00 +0.0000000000e+00 +5.3973171897e+01 5.3973171897e+01 0.0000000000e+00 0.0000e+00 1.0000e+00
       21 -1    0    0  501  502 -0.0000000000e+00 -0.0000000000e+00 -7.2373919536e+01 7.2373919536e+01 0.0000000000e+00 0.0000e+00 1.0000e+00
       25  2    1    2    0    0 +0.0000000000e+00 +0.0000000000e+00 -1.8400747639e+01 1.2634709143e+02 1.2500000000e+02 0.0000e+00 0.0000e+00
      -15  1    3    3    0    0 -4.7033031142e+00 -1.3928128800e-01 -7.5869137278e+00 9.1027165382e+00 1.7770000000e+00 0.0000e+00 -1.0000e+00
       15  1    3    3    0    0 +2.1338371825e+01 +2.5259108582e+01 +4.3777742545e+01 5.4890774724e+01 1.7770000000e+00 0.0000e+00 -1.0000e+00
       22  1    3    3    0    0 -1.6635068711e+01 -2.5119827294e+01 -5.4591576456e+01 6.2353600171e+01 0.0000000000e+00 0.0000e+00 -1.0000e+00
<mgrwt>
<rscale>  2 0.12500000E+03</rscale>
<asrwt>0</asrwt>
<pdfrwt beam="1">  1       21 0.79372312E-02 0.12500000E+03</pdfrwt>
<pdfrwt beam="2">  1       21 0.10643223E-01 0.12500000E+03</pdfrwt>
<totfact> 0.88749376E+06</totfact>
</mgrwt>
</event>
<event>
 6      0 +9.8758382e+01 1.25000000e+02 7.54677100e-03 1.12640300e-01
       21 -1    0    0  502  501 +0.0000000000e+00 +0.0000000000e+00 +1.2612659335e+01 1.2612659335e+01 0.0000000000e+00 0.0000e+00 1.0000e+00
       21 -1    0    0  501  502 -0.0000000000e+00 -0.0000000000e+00 -3.0970867413e+02 3.0970867413e+02 0.0000000000e+00 0.0000e+00 1.0000e+00
       25  2    1    2    0    0 +0.0000000000e+00 +0.0000000000e+00 -2.9709601480e+02 3.2232133347e+02 1.2500000000e+02 0.0000e+00 0.0000e+00
      -15  1    3    3    0    0 -1.9334316373e+01 +2.5572649351e+01 -2.1095686392e+02 2.1338634527e+02 1.7770000000e+00 0.0000e+00 -1.0000e+00
       15  1    3    3    0    0 +3.6135341357e+01 -3.2362333961e+01 -6.3974458868e+01 8.0305495895e+01 1.7770000000e+00 0.0000e+00 -1.0000e+00
       22  1    3    3    0    0 -1.6801024985e+01 +6.7896846109e+00 -2.2164692018e+01 2.8629492310e+01 0.0000000000e+00 0.0000e+00 -1.0000e+00
<mgrwt>
<rscale>  2 0.12500000E+03</rscale>
<asrwt>0</asrwt>
<pdfrwt beam="1">  1       21 0.18548026E-02 0.12500000E+03</pdfrwt>
<pdfrwt beam="2">  1       21 0.45545399E-01 0.12500000E+03</pdfrwt>
<totfact> 0.61452628E+06</totfact>
</mgrwt>
</event>
<event>
 6      0 +9.8758382e+01 1.25000000e+02 7.54677100e-03 1.12640300e-01
       21 -1    0    0  502  501 +0.0000000000e+00 +0.0000000000e+00 +6.7549595876e+01 6.7549595876e+01 0.0000000000e+00 0.0000e+00 -1.0000e+00
       21 -1    0    0  501  502 -0.0000000000e+00 -0.0000000000e+00 -5.7827881120e+01 5.7827881120e+01 0.0000000000e+00 0.0000e+00 -1.0000e+00
       25  2    1    2    0    0 +0.0000000000e+00 +0.0000000000e+00 +9.7217147556e+00 1.2537747700e+02 1.2500000000e+02 0.0000e+00 0.0000e+00
      -15  1    3    3    0    0 +5.1946025269e+01 +2.4351532731e+01 +2.2594157265e+01 6.1685009193e+01 1.7770000000e+00 0.0000e+00 -1.0000e+00
       15  1    3    3    0    0 -3.0705893658e+01 -4.3799426805e+00 +1.6690650348e+00 3.1112365875e+01 1.7770000000e+00 0.0000e+00 -1.0000e+00
       22  1    3    3    0    0 -2.1240131611e+01 -1.9971590050e+01 -1.4541507544e+01 3.2580101927e+01 0.0000000000e+00 0.0000e+00 -1.0000e+00
<mgrwt>
<rscale>  2 0.12500000E+03</rscale>
<asrwt>0</asrwt>
<pdfrwt beam="1">  1       21 0.99337641E-02 0.12500000E+03</pdfrwt>
<pdfrwt beam="2">  1       21 0.85041002E-02 0.12500000E+03</pdfrwt>
<totfact> 0.88926495E+06</totfact>
</mgrwt>
</event>
<event>
 6      0 +9.8758382e+01 1.25000000e+02 7.54677100e-03 1.12640300e-01
       21 -1    0    0  502  501 +0.0000000000e+00 +0.0000000000e+00 +5.5881255176e+00 5.5881255176e+00 0.0000000000e+00 0.0000e+00 1.0000e+00
       21 -1    0    0  501  502 -0.0000000000e+00 -0.0000000000e+00 -6.9902688973e+02 6.9902688973e+02 0.0000000000e+00 0.0000e+00 1.0000e+00
       25  2    1    2    0    0 +0.0000000000e+00 +0.0000000000e+00 -6.9343876421e+02 7.0461501524e+02 1.2500000000e+02 0.0000e+00 0.0000e+00
      -15  1    3    3    0    0 +2.7793038162e+01 -5.2250761326e+00 -5.6343586736e+01 6.3067518471e+01 1.7770000000e+00 0.0000e+00 -1.0000e+00
       15  1    3    3    0    0 -4.7333392662e+01 +3.5390122554e-01 -2.8777939719e+02 2.9165170064e+02 1.7770000000e+00 0.0000e+00 -1.0000e+00
       22  1    3    3    0    0 +1.9540354500e+01 +4.8711749070e+00 -3.4931578045e+02 3.4989579630e+02 0.0000000000e+00 0.0000e+00 -1.0000e+00
<mgrwt>
<rscale>  2 0.12500000E+03</rscale>
<asrwt>0</asrwt>
<pdfrwt beam="1">  1       21 0.82178249E-03 0.12500000E+03</pdfrwt>
<pdfrwt beam="2">  1       21 0.10279816E+00 0.12500000E+03</pdfrwt>
<totfact> 0.32678373E+06</totfact>
</mgrwt>
</event>
<event>
 6      0 +9.8758382e+01 1.25000000e+02 7.54677100e-03 1.12640300e-01
       21 -1    0    0  502  501 +0.0000000000e+00 +0.0000000000e+00 +6.5723142024e+01 6.5723142024e+01 0.0000000000e+00 0.0000e+00 -1.0000e+00
       21 -1    0    0  501  502 -0.0000000000e+00 -0.0000000000e+00 -5.9434924742e+01 5.9434924742e+01 0.0000000000e+00 0.0000e+00 -1.0000e+00
       25  2    1    2    0    0 +0.0000000000e+00 +0.0000000000e+00 +6.2882172823e+00 1.2515806677e+02 1.2500000000e+02 0.0000e+00 0.0000e+00
      -15  1    3    3    0    0 +2.5090343564e+01 -1.5239427153e+01 +3.0522937112e+01 4.2385998856e+01 1.7770000000e+00 0.0000e+00 -1.0000e+00
       15  1    3    3    0    0 -3.1291591578e+01 +3.8220931167e+01 -3.0598188310e+01 5.8132694241e+01 1.7770000000e+00 0.0000e+00 -1.0000e+00
       22  1    3    3    0    0 +6.2012480144e+00 -2.2981504015e+01 +6.3634684805e+00 2.4639373669e+01 0.0000000000e+00 0.0000e+00 -1.0000e+00
<mgrwt>
<rscale>  2 0.12500000E+03</rscale>
<asrwt>0</asrwt>
<pdfrwt beam="1">  1       21 0.96651680E-02 0.12500000E+03</pdfrwt>
<pdfrwt beam="2">  1       21 0.87404301E-02 0.12500000E+03</pdfrwt>
<totfact> 0.88969161E+06</totfact>
</mgrwt>
</event>
<event>
 6      0 +9.8758382e+01 1.25000000e+02 7.54677100e-03 1.12640300e-01
       21 -1    0    0  502  501 +0.0000000000e+00 +0.0000000000e+00 +7.1069610417e+02 7.1069610417e+02 0.0000000000e+00 0.0000e+00 -1.0000e+00
       21 -1    0    0  501  502 -0.0000000000e+00 -0.0000000000e+00 -5.4963717644e+00 5.4963717644e+00 0.0000000000e+00 0.0000e+00 -1.0000e+00
       25  2    1    2    0    0 +0.0000000000e+00 +0.0000000000e+00 +7.0519973240e+02 7.1619247593e+02 1.2500000000e+02 0.0000e+00 0.0000e+00
      -15  1    3    3    0    0 -1.9581484097e+01 +1.6498136799e+01 +2.5291635703e+02 2.5421538982e+02 1.7770000000e+00 0.0000e+00 -1.0000e+00
       15  1    3    3    0    0 -3.5038270908e+01 +2.4682887251e+00 +1.3743113662e+02 1.4185995883e+02 1.7770000000e+00 0.0000e+00 -1.0000e+00
       22  1    3    3    0    0 +5.4619755004e+01 -1.8966425524e+01 +3.1485223871e+02 3.2011712724e+02 0.0000000000e+00 0.0000e+00 -1.0000e+00
<mgrwt>
<rscale>  2 0.12500000E+03</rscale>
<asrwt>0</asrwt>
<pdfrwt beam="1">  1       21 0.10451407E+00 0.12500000E+03</pdfrwt>
<pdfrwt beam="2">  1       21 0.80829045E-03 0.12500000E+03</pdfrwt>
<totfact> 0.32103356E+06</totfact>
</mgrwt>
</event>
<event>
 6      0 +9.8758382e+01 1.25000000e+02 7.54677100e-03 1.12640300e-01
       21 -1    0    0  502  501 +0.0000000000e+00 +0.0000000000e+00 +2.2781825527e+02 2.2781825527e+02 0.0000000000e+00 0.0000e+00 -1.0000e+00
       21 -1    0    0  501  502 -0.0000000000e+00 -0.0000000000e+00 -1.7146343235e+01 1.7146343235e+01 0.0000000000e+00 0.0000e+00 -1.0000e+00
       25  2    1    2    0    0 +0.0000000000e+00 +0.0000000000e+00 +2.1067191203e+02 2.4496459850e+02 1.2500000000e+02 0.0000e+00 0.0000e+00
      -15  1    3    3    0    0 -3.6592391746e+01 -6.1660841755e+00 +5.2102846202e+01 6.3991312216e+01 1.7770000000e+00 0.0000e+00 -1.0000e+00
       15  1    3    3    0    0 -1.0853316871e+01 -1.5813959647e+01 +6.7646825281e+00 2.0415544703e+01 1.7770000000e+00 0.0000e+00 -1.0000e+00
       22  1    3    3    0    0 +4.7445708617e+01 +2.1980043822e+01 +1.5180438330e+02 1.6055774158e+02 0.0000000000e+00 0.0000e+00 -1.0000e+00
<mgrwt>
<rscale>  2 0.12500000E+03</rscale>
<asrwt>0</asrwt>
<pdfrwt beam="1">  1       21 0.33502683E-01 0.12500000E+03</pdfrwt>
<pdfrwt beam="2">  1       21 0.25215212E-02 0.12500000E+03</pdfrwt>
<totfact> 0.70654962E+06</totfact>
</mgrwt>
</event>
<event>
 6      0 +9.8758382e+01 1.25000000e+02 7.54677100e-03 1.12640300e-01
       21 -1    0    0  502  501 +0.0000000000e+00 +0.0000000000e+00 +2.3174777298e+01 2.3174777298e+01 0.0000000000e+00 0.0000e+00 1.0000e+00
       21 -1    0    0  501  502 -0.0000000000e+00 -0.0000000000e+00 -1.6855609656e+02 1.6855609656e+02 0.0000000000e+00 0.0000e+00 1.0000e+00
       25  2    1    2    0    0 +0.0000000000e+00 +0.0000000000e+00 -1.4538131926e+02 1.9173087386e+02 1.2500000000e+02 0.0000e+00 0.0000e+00
      -15  1    3    3    0    0 -4.7930690715e+00 +2.8986332196e+01 -1.9419559165e+00 2.9497625108e+01 1.7770000000e+00 0.0000e+00 -1.0000e+00
       15  1    3    3    0    0 -1.4033460878e+01 +1.8644976375e+01 -5.9036787674e+01 6.3506481528e+01 1.7770000000e+00 0.0000e+00 -1.0000e+00
       22  1    3    3    0    0 +1.8826529950e+01 -4.7631308571e+01 -8.4402575662e+01 9.8726767214e+01 0.0000000000e+00 0.0000e+00 -1.0000e+00
<mgrwt>
<rscale>  2 0.12500000E+03</rscale>
<asrwt>0</asrwt>
<pdfrwt beam="1">  1       21 0.34080554E-02 0.12500000E+03</pdfrwt>
<pdfrwt beam="2">  1       21 0.24787662E-01 0.12500000E+03</pdfrwt>
<totfact> 0.78039700E+06</totfact>
</mgrwt>
</event>
<event>
 6      0 +9.8758382e+01 1.25000000e+02 7.54677100e-03 1.12640300e-01
       21 -1    0    0  502  501 +0.0000000000e+00 +0.0000000000e+00 +1.5625691790e+02 1.5625691790e+02 0.0000000000e+00 0.0000e+00 1.0000e+00
       21 -1    0    0  501  502 -0.0000000000e+00 -0.0000000000e+00 -2.4998893184e+01 2.4998893184e+01 0.0000000000e+00 0.0000e+00 1.0000e+00
       25  2    1    2    0    0 +0.0000000000e+00 +0.0000000000e+00 +1.3125802472e+02 1.8125581109e+02 1.2500000000e+02 0.0000e+00 0.0000e+00
      -15  1    3    3    0    0 +1.0644013783e+00 +2.6533693702e+01 +2.2111558247e+01 3.4601280162e+01 1.7770000000e+00 0.0000e+00 -1.0000e+00
       15  1    3    3    0    0 +3.0635365776e+01 +2.3515000456e+01 +4.0859099695e+01 5.6250374572e+01 1.7770000000e+00 0.0000e+00 -1.0000e+00
       22  1    3    3    0    0 -3.1699767155e+01 -5.0048694158e+01 +6.8287366775e+01 9.0404156351e+01 0.0000000000e+00 0.0000e+00 -1.0000e+00
<mgrwt>
<rscale>  2 0.12500000E+03</rscale>
<asrwt>0</asrwt>
<pdfrwt beam="1">  1       21 0.22978958E-01 0.12500000E+03</pdfrwt>
<pdfrwt beam="2">  1       21 0.36763079E-02 0.12500000E+03</pdfrwt>
<totfact> 0.79614565E+06</totfact>
</mgrwt>
</event>
<event>
 6      0 +9.8758382e+01 1.25000000e+02 7.54677100e-03 1.12640300e-01
       21 -1    0    0  502  501 +0.0000000000e+00 +0.0000000000e+00 +2.5313760482e+01 2.5313760482e+01 0.0000000000e+00 0.0000e+00 -1.0000e+00
       21 -1    0    0  501  502 -0.0000000000e+00 -0.0000000000e+00 -1.5431330334e+02 1.5431330334e+02 0.0000000000e+00 0.0000e+00 -1.0000e+00
       25  2    1    2    0    0 +0.0000000000e+00 +0.0000000000e+00 -1.2899954286e+02 1.7962706382e+02 1.2500000000e+02 0.0000e+00 0.0000e+00
      -15  1    3    3    0    0 -9.0077971796e+00 -1.2059593386e+01 -5.2405042420e+01 5.4552913788e+01 1.7770000000e+00 0.0000e+00 -1.0000e+00
       15  1    3    3    0    0 -3.6039867015e+01 +5.8757797660e+00 -7.0209909449e+01 7.9157980749e+01 1.7770000000e+00 0.0000e+00 -1.0000e+00
       22  1    3    3    0    0 +4.5047664194e+01 +6.1838136200e+00 -6.3845909967e+00 4.5916169292e+01 0.0000000000e+00 0.0000e+00 -1.0000e+00
<mgrwt>
<rscale>  2 0.12500000E+03</rscale>
<asrwt>0</asrwt>
<pdfrwt beam="1">  1       21 0.37226119E-02 0.12500000E+03</pdfrwt>
<pdfrwt beam="2">  1       21 0.22693133E-01 0.12500000E+03</pdfrwt>
<totfact> 0.79863501E+06</totfact>
</mgrwt>
</event>
<event>
 6      0 +9.8758382e+01 1.25000000e+02 7.54677100e-03 1.12640300e-01
       21 -1    0    0  502  501 +0.0000000000e+00 +0.0000000000e+00 +9.9234028467e+01 9.9234028467e+01 0.0000000000e+00 0.0000e+00 1.0000e+00
       21 -1    0    0  501  502 -0.0000000000e+00 -0.0000000000e+00 -3.9364017166e+01 3.9364017166e+01 0.0000000000e+00 0.0000e+00 1.0000e+00
       25  2    1    2    0    0 +0.0000000000e+00 +0.0000000000e+00 +5.9870011301e+01 1.3859804563e+02 1.2500000000e+02 0.0000e+00 0.0000e+00
      -15  1    3    3    0    0 -1.4420024574e+01 -1.3640180796e+01 -1.6805868452e+01 2.6068881530e+01 1.7770000000e+00 0.0000e+00 -1.0000e+00
       15  1    3    3    0    0 +4.5699474969e+01 +1.8691138637e+01 +5.6079140933e+01 7.4738400122e+01 1.7770000000e+00 0.0000e+00 -1.0000e+00
       22  1    3    3    0    0 -3.1279450396e+01 -5.0509578413e+00 +2.0596738821e+01 3.7790763980e+01 0.0000000000e+00 0.0000e+00 -1.0000e+00
<mgrwt>
<rscale>  2 0.12500000E+03</rscale>
<asrwt>0</asrwt>
<pdfrwt beam="1">  1       21 0.14593239E-01 0.12500000E+03</pdfrwt>
<pdfrwt beam="2">  1       21 0.57888261E-02 0.12500000E+03</pdfrwt>
<totfact> 0.86582312E+06</totfact>
</mgrwt>
</event>
<event>
 6      0 +9.8758382e+01 1.25000000e+02 7.54677100e-03 1.12640300e-01
       21 -1    0    0  502  501 +0.0000000000e+00 +0.0000000000e+00 +7.3750857733e+02 7.3750857733e+02 0.0000000000e+00 0.0000e+00 -1.0000e+00
       21 -1    0    0  501  502 -0.0000000000e+00 -0.0000000000e+00 -5.2965485692e+00 5.2965485692e+00 0.0000000000e+00 0.0000e+00 -1.0000e+00
       25  2    1    2    0    0 +0.0000000000e+00 +0.0000000000e+00 +7.3221202876e+02 7.4280512590e+02 1.2500000000e+02 0.0000e+00 0.0000e+00
      -15  1    3    3    0    0 -3.2245763210e+00 -1.2729989401e+01 +2.9510844182e+02 2.9540582372e+02 1.7770000000e+00 0.0000e+00 -1.0000e+00
       15  1    3    3    0    0 +4.1950058213e+01 +3.1056142726e+01 +2.2062295031e+02 2.2671994910e+02 1.7770000000e+00 0.0000e+00 -1.0000e+00
       22  1    3    3    0    0 -3.8725481892e+01 -1.8326153325e+01 +2.1648063657e+02 2.2067935303e+02 0.0000000000e+00 0.0000e+00 -1.0000e+00
<mgrwt>
<rscale>  2 0.12500000E+03</rscale>
<asrwt>0</asrwt>
<pdfrwt beam="1">  1       21 0.10845707E+00 0.12500000E+03</pdfrwt>
<pdfrwt beam="2">  1       21 0.77890471E-03 0.12500000E+03</pdfrwt>
<totfact> 0.30828653E+06</totfact>
</mgrwt>
</event>
<event>
 6      0 +9.8758382e+01 1.25000000e+02 7.54677100e-03 1.12640300e-01
       21 -1    0    0  502  501 +0.0000000000e+00 +0.0000000000e+00 +2.7658047991e+02 2.7658047991e+02 0.0000000000e+00 0.0000e+00 -1.0000e+00
       21 -1    0    0  501  502 -0.0000000000e+00 -0.0000000000e+00 -1.4123375595e+01 1.4123375595e+01 0.0000000000e+00 0.0000e+00 -1.0000e+00
       25  2    1    2    0    0 +0.0000000000e+00 +0.0000000000e+00 +2.6245710431e+02 2.9070385550e+02 1.2500000000e+02 0.0000e+00 0.0000e+00
      -15  1    3    3    0    0 +5.1612316184e+00 +2.0496462552e+01 +2.4932035869e+02 2.5022098688e+02 1.7770000000e+00 0.0000e+00 -1.0000e+00
       15  1    3    3    0    0 -1.5829350850e+01 -2.1131702532e+01 +4.7221113513e+00 2.6880722922e+01 1.7770000000e+00 0.0000e+00 -1.0000e+00
       22  1    3    3    0    0 +1.0668119231e+01 +6.3523997926e-01 +8.4146342731e+00 1.3602145702e+01 0.0000000000e+00 0.0000e+00 -1.0000e+00
<mgrwt>
<rscale>  2 0.12500000E+03</rscale>
<asrwt>0</asrwt>
<pdfrwt beam="1">  1       21 0.40673597E-01 0.12500000E+03</pdfrwt>
<pdfrwt beam="2">  1       21 0.20769672E-02 0.12500000E+03</pdfrwt>
<totfact> 0.65027484E+06</totfact>
</mgrwt>
</event>
<event>
 6      0 +9.8758382e+01 1.25000000e+02 7.54677100e-03 1.12640300e-01
       21 -1    0    0  502  501 +0.0000000000e+00 +0.0000000000e+00 +2.6487813394e+01 2.6487813394e+01 0.0000000000e+00 0.0000e+00 1.0000e+00
       21 -1    0    0  501  502 -0.0000000000e+00 -0.0000000000e+00 -1.4747347929e+02 1.4747347929e+02 0.0000000000e+00 0.0000e+00 1.0000e+00
       25  2    1    2    0    0 +0.0000000000e+00 +0.0000000000e+00 -1.2098566590e+02 1.7396129268e+02 1.2500000000e+02 0.0000e+00 0.0000e+00
      -15  1    3    3    0    0 +2.8975946028e+01 +7.4567058080e+00 -1.3128207173e+01 3.2721788801e+01 1.7770000000e+00 0.0000e+00 -1.0000e+00
       15  1    3    3    0    0 -5.5471204158e+01 -1.8972409238e+01 -5.2139896507e+01 7.8477597694e+01 1.7770000000e+00 0.0000e+00 -1.0000e+00
       22  1    3    3    0    0 +2.6495258130e+01 +1.1515703430e+01 -5.5717562229e+01 6.2761906198e+01 0.0000000000e+00 0.0000e+00 -1.0000e+00
<mgrwt>
<rscale>  2 0.12500000E+03</rscale>
<asrwt>0</asrwt>
<pdfrwt beam="1">  1       21 0.38952667E-02 0.12500000E+03</pdfrwt>
<pdfrwt beam="2">  1       21 0.21687276E-01 0.12500000E+03</pdfrwt>
<totfact> 0.80740257E+06</totfact>
</mgrwt>
</event>
<event>
 6      0 +9.8758382e+01 1.25000000e+02 7.54677100e-03 1.12640300e-01
       21 -1    0    0  502  501 +0.0000000000e+00 +0.0000000000e+00 +1.3130109243e+03 1.3130109243e+03 0.0000000000e+00 0.0000e+00 1.0000e+00
       21 -1    0    0  501  502 -0.0000000000e+00 -0.0000000000e+00 -2.9750323686e+00 2.9750323686e+00 0.0000000000e+00 0.0000e+00 1.0000e+00
       25  2    1    2    0    0 +0.0000000000e+00 +0.0000000000e+00 +1.3100358919e+03 1.3159859566e+03 1.2500000000e+02 0.0000e+00 0.0000e+00
      -15  1    3    3    0    0 +2.9374415083e+01 -9.8900465940e+00 +3.4866244867e+02 3.5004189767e+02 1.7770000000e+00 0.0000e+00 -1.0000e+00
       15  1    3    3    0    0 -4.9913222038e+00 -3.8825930676e+01 +3.7196410030e+02 3.7402248038e+02 1.7770000000e+00 0.0000e+00 -1.0000e+00
       22  1    3    3    0    0 -2.4383092879e+01 +4.8715977270e+01 +5.8940934703e+02 5.9192158267e+02 0.0000000000e+00 0.0000e+00 -1.0000e+00
<mgrwt>
<rscale>  2 0.12500000E+03</rscale>
<asrwt>0</asrwt>
<pdfrwt beam="1">  1       21 0.19308944E+00 0.12500000E+03</pdfrwt>
<pdfrwt beam="2">  1       21 0.43750567E-03 0.12500000E+03</pdfrwt>
<totfact> 0.13660286E+06</totfact>
</mgrwt>
</event>
<event>
 6      0 +9.8758382e+01 1.25000000e+02 7.54677100e-03 1.12640300e-01
       21 -1    0    0  502  501 +0.0000000000e+00 +0.0000000000e+00 +7.2798785681e+00 7.2798785681e+00 0.0000000000e+00 0.0000e+00 -1.0000e+00
       21 -1    0    0  501  502 -0.0000000000e+00 -0.0000000000e+00 -5.3658175249e+02 5.3658175249e+02 0.0000000000e+00 0.0000e+00 -1.0000e+00
       25  2    1    2    0    0 +0.0000000000e+00 +0.0000000000e+00 -5.2930187392e+02 5.4386163106e+02 1.2500000000e+02 0.0000e+00 0.0000e+00
      -15  1    3    3    0    0 -5.4574684789e+00 -4.8150903884e+01 -3.3330370945e+02 3.3681272834e+02 1.7770000000e+00 0.0000e+00 -1.0000e+00
       15  1    3    3    0    0 -8.1968966158e+00 +3.0925860552e+00 -4.8146287622e+00 1.0153402473e+01 1.7770000000e+00 0.0000e+00 -1.0000e+00
       22  1    3    3    0    0 +1.3654365095e+01 +4.5058317829e+01 -1.9118353564e+02 1.9689550018e+02 0.0000000000e+00 0.0000e+00 -1.0000e+00
<mgrwt>
<rscale>  2 0.12500000E+03</rscale>
<asrwt>0</asrwt>
<pdfrwt beam="1">  1       21 0.10705700E-02 0.12500000E+03</pdfrwt>
<pdfrwt beam="2">  1       21 0.78909109E-01 0.12500000E+03</pdfrwt>
<totfact> 0.42210854E+06</totfact>
</mgrwt>
</event>
<event>
 6      0 +9.8758382e+01 1.25000000e+02 7.54677100e-03 1.12640300e-01
       21 -1    0    0  502  501 +0.0000000000e+00 +0.0000000000e+00 +1.4547092636e+01 1.4547092636e+01 0.0000000000e+00 0.0000e+00 -1.0000e+00
       21 -1    0    0  501  502 -0.0000000000e+00 -0.0000000000e+00 -2.6852444662e+02 2.6852444662e+02 0.0000000000e+00 0.0000e+00 -1.0000e+00
       25  2    1    2    0    0 +0.0000000000e+00 +0.0000000000e+00 -2.5397735398e+02 2.8307153926e+02 1.2500000000e+02 0.0000e+00 0.0000e+00
      -15  1    3    3    0    0 +5.3069314665e+01 +6.1913084369e+00 -5.6386126322e+01 7.7699661710e+01 1.7770000000e+00 0.0000e+00 -1.0000e+00
       15  1    3    3    0    0 -2.0058650318e+00 +7.1792932554e-01 -2.7687299760e+01 2.7825944981e+01 1.7770000000e+00 0.0000e+00 -1.0000e+00
       22  1    3    3    0    0 -5.1063449634e+01 -6.9092377624e+00 -1.6990392786e+02 1.7754593253e+02 0.0000000000e+00 0.0000e+00 -1.0000e+00
<mgrwt>
<rscale>  2 0.12500000E+03</rscale>
<asrwt>0</asrwt>
<pdfrwt beam="1">  1       21 0.21392784E-02 0.12500000E+03</pdfrwt>
<pdfrwt beam="2">  1       21 0.39488887E-01 0.12500000E+03</pdfrwt>
<totfact> 0.65926031E+06</totfact>
</mgrwt>
</event>
<event>
 6      0 +9.8758382e+01 1.25000000e+02 7.54677100e-03 1.12640300e-01
       21 -1    0    0  502  501 +0.0000000000e+00 +0.0000000000e+00 +3.4330603650e+01 3.4330603650e+01 0.0000000000e+00 0.0000e+00 -1.0000e+00
       21 -1    0    0  501  502 -0.0000000000e+00 -0.0000000000e+00 -1.1378331823e+02 1.1378331823e+02 0.0000000000e+00 0.0000e+00 -1.0000e+00
       25  2    1    2    0    0 +0.0000000000e+00 +0.0000000000e+00 -7.9452714575e+01 1.4811392188e+02 1.2500000000e+02 0.0000e+00 0.0000e+00
      -15  1    3    3    0    0 +6.9245566348e+00 +4.3596509055e+01 -2.1407582885e+01 4.9092233808e+01 1.7770000000e+00 0.0000e+00 -1.0000e+00
       15  1    3    3    0    0 +2.3735925502e+01 +1.3635236961e+00 -2.8298376146e+01 3.7002826619e+01 1.7770000000e+00 0.0000e+00 -1.0000e+00
       22  1    3    3    0    0 -3.0660482137e+01 -4.4960032751e+01 -2.9746755541e+01 6.2018861446e+01 0.0000000000e+00 0.0000e+00 -1.0000e+00
<mgrwt>
<rscale>  2 0.12500000E+03</rscale>
<asrwt>0</asrwt>
<pdfrwt beam="1">  1       21 0.50486183E-02 0.12500000E+03</pdfrwt>
<pdfrwt beam="2">  1       21 0.16732841E-01 0.12500000E+03</pdfrwt>
<totfact> 0.84943154E+06</totfact>
</mgrwt>
</event>
<event>
 6      0 +9.8758382e+01 1.25000000e+02 7.54677100e-03 1.12640300e-01
       21 -1    0    0  502  501 +0.0000000000e+00 +0.0000000000e+00 +1.3895930122e+01 1.3895930122e+01 0.0000000000e+00 0.0000e+00 1.0000e+00
       21 -1    0    0  501  502 -0.0000000000e+00 -0.0000000000e+00 -2.8110748727e+02 2.8110748727e+02 0.0000000000e+00 0.0000e+00 1.0000e+00
       25  2    1    2    0    0 +0.0000000000e+00 +0.0000000000e+00 -2.6721155715e+02 2.9500341739e+02 1.2500000000e+02 0.0000e+00 0.0000e+00
      -15  1    3    3    0    0 -3.4522761727e+01 -4.9195234952e+00 -7.4735136222e+01 8.2489521175e+01 1.7770000000e+00 0.0000e+00 -1.0000e+00
       15  1    3    3    0    0 +1.2269972824e+01 -3.3552728174e+01 -3.9855157785e+01 5.3553049699e+01 1.7770000000e+00 0.0000e+00 -1.0000e+00
       22  1    3    3    0    0 +2.2252788903e+01 +3.8472251669e+01 -1.5262126317e+02 1.5896084654e+02 0.0000000000e+00 0.0000e+00 -1.0000e+00
<mgrwt>
<rscale>  2 0.12500000E+03</rscale>
<asrwt>0</asrwt>
<pdfrwt beam="1">  1       21 0.20435193E-02 0.12500000E+03</pdfrwt>
<pdfrwt beam="2">  1       21 0.41339333E-01 0.12500000E+03</pdfrwt>
<totfact> 0.64526933E+06</totfact>
</mgrwt>
</event>
<event>
 6      0 +9.8758382e+01 1.25000000e+02 7.54677100e-03 1.12640300e-01
       21 -1    0    0  502  501 +0.0000000000e+00 +0.0000000000e+00 +6.6706171901e+01 6.6706171901e+01 0.0000000000e+00 0.0000e+00 1.0000e+00
       21 -1    0    0  501  502 -0.0000000000e+00 -0.0000000000e+00 -5.8559049165e+01 5.8559049165e+01 0.0000000000e+00 0.0000e+00 1.0000e+00
       25  2    1    2    0    0 +0.0000000000e+00 +0.0000000000e+00 +8.1471227359e+00 1.2526522107e+02 1.2500000000e+02 0.0000e+00 0.0000e+00
      -15  1    3    3    0    0 -3.8947306625e+01 +1.9899898931e+01 +4.1163896798e+00 4.3965907972e+01 1.7770000000e+00 0.0000e+00 -1.0000e+00
       15  1    3    3    0    0 +7.7220757593e+00 +1.6636183886e+01 +2.3138014242e+01 2.9579021289e+01 1.7770000000e+00 0.0000e+00 -1.0000e+00
       22  1    3    3    0    0 +3.1225230865e+01 -3.6536082817e+01 -1.9107281186e+01 5.1720291807e+01 0.0000000000e+00 0.0000e+00 -1.0000e+00
<mgrwt>
<rscale>  2 0.12500000E+03</rscale>
<asrwt>0</asrwt>
<pdfrwt beam="1">  1       21 0.98097312E-02 0.12500000E+03</pdfrwt>
<pdfrwt beam="2">  1       21 0.86116249E-02 0.12500000E+03</pdfrwt>
<totfact> 0.88948017E+06</totfact>
</mgrwt>
</event>
<event>
 6      0 +9.8758382e+01 1.25000000e+02 7.54677100e-03 1.12640300e-01
       21 -1    0    0  502  501 +0.0000000000e+00 +0.0000000000e+00 +1.5680441524e+02 1.5680441524e+02 0.0000000000e+00 0.0000e+00 -1.0000e+00
       21 -1    0    0  501  502 -0.0000000000e+00 -0.0000000000e+00 -2.4911607202e+01 2.4911607202e+01 0.0000000000e+00 0.0000e+00 -1.0000e+00
       25  2    1    2    0    0 +0.0000000000e+00 +0.0000000000e+00 +1.3189280804e+02 1.8171602244e+02 1.2500000000e+02 0.0000e+00 0.0000e+00
      -15  1    3    3    0    0 +1.7999803620e+00 -1.7663313761e+01 +8.2240857703e+01 8.4154316509e+01 1.7770000000e+00 0.0000e+00 -1.0000e+00
       15  1    3    3    0    0 +3.3943569533e+00 +1.6126181855e-01 +7.0068323868e+01 7.0173181510e+01 1.7770000000e+00 0.0000e+00 -1.0000e+00
       22  1    3    3    0    0 -5.1943373153e+00 +1.7502051942e+01 -2.0416373527e+01 2.7388524427e+01 0.0000000000e+00 0.0000e+00 -1.0000e+00
<mgrwt>
<rscale>  2 0.12500000E+03</rscale>
<asrwt>0</asrwt>
<pdfrwt beam="1">  1       21 0.23059472E-01 0.12500000E+03</pdfrwt>
<pdfrwt beam="2">  1       21 0.36634717E-02 0.12500000E+03</pdfrwt>
<totfact> 0.79544462E+06</totfact>
</mgrwt>
</event>
<event>
 6      0 +9.8758382e+01 1.25000000e+02 7.54677100e-03 1.12640300e-01
       21 -1    0    0  502  501 +0.0000000000e+00 +0.0000000000e+00 +4.2011677798e+01 4.2011677798e+01 0.0000000000e+00 0.0000e+00 -1.0000e+00
       21 -1    0    0  501  502 -0.0000000000e+00 -0.0000000000e+00 -9.2980099933e+01 9.2980099933e+01 0.0000000000e+00 0.0000e+00 -1.0000e+00
       25  2    1    2    0    0 +0.0000000000e+00 +0.0000000000e+00 -5.0968422135e+01 1.3499177773e+02 1.2500000000e+02 0.0000e+00 0.0000e+00
      -15  1    3    3    0    0 +2.5984979171e+00 +2.0609267555e+01 -2.3622850833e+01 3.1506997811e+01 1.7770000000e+00 0.0000e+00 -1.0000e+00
       15  1    3    3    0    0 -3.2336395880e+01 +4.1066771367e+00 -4.9217513879e+01 5.9059535191e+01 1.7770000000e+00 0.0000e+00 -1.0000e+00
       22  1    3    3    0    0 +2.9737897963e+01 -2.4715944691e+01 +2.1871942576e+01 4.4425244729e+01 0.0000000000e+00 0.0000e+00 -1.0000e+00
<mgrwt>
<rscale>  2 0.12500000E+03</rscale>
<asrwt>0</asrwt>
<pdfrwt beam="1">  1       21 0.61781880E-02 0.12500000E+03</pdfrwt>
<pdfrwt beam="2">  1       21 0.13673544E-01 0.12500000E+03</pdfrwt>
<totfact> 0.87207331E+06</totfact>
</mgrwt>
</event>
<event>
 6      0 +9.8758382e+01 1.25000000e+02 7.54677100e-03 1.12640300e-01
       21 -1    0    0  502  501 +0.0000000000e+00 +0.0000000000e+00 +1.0060845606e+02 1.0060845606e+02 0.0000000000e+00 0.0000e+00 -1.0000e+00
       21 -1    0    0  501  502 -0.0000000000e+00 -0.0000000000e+00 -3.8826259271e+01 3.8826259271e+01 0.0000000000e+00 0.0000e+00 -1.0000e+00
       25  2    1    2    0    0 +0.0000000000e+00 +0.0000000000e+00 +6.1782196794e+01 1.3943471534e+02 1.2500000000e+02 0.0000e+00 0.0000e+00
      -15  1    3    3    0    0 -2.4230135906e+01 +4.0356713339e+00 +7.8066111662e+01 8.1858790903e+01 1.7770000000e+00 0.0000e+00 -1.0000e+00
       15  1    3    3    0    0 +4.4020210705e+00 -2.4586325351e+01 -1.4563351670e+01 2.8967466658e+01 1.7770000000e+00 0.0000e+00 -1.0000e+00
       22  1    3    3    0    0 +1.9828114835e+01 +2.0550654017e+01 -1.7205632006e+00 2.8608457773e+01 0.0000000000e+00 0.0000e+00 -1.0000e+00
<mgrwt>
<rscale>  2 0.12500000E+03</rscale>
<asrwt>0</asrwt>
<pdfrwt beam="1">  1       21 0.14795361E-01 0.12500000E+03</pdfrwt>
<pdfrwt beam="2">  1       21 0.57097440E-02 0.12500000E+03</pdfrwt>
<totfact> 0.86437983E+06</totfact>
</mgrwt>
</event>
<event>
 6      0 +9.8758382e+01 1.25000000e+02 7.54677100e-03 1.12640300e-01
       21 -1    0    0  502  501 +0.0000000000e+00 +0.0000000000e+00 +1.5086411101e+02 1.5086411101e+02 0.0000000000e+00 0.0000e+00 -1.0000e+00
       21 -1    0    0  501  502 -0.0000000000e+00 -0.0000000000e+00 -2.5892506666e+01 2.5892506666e+01 0.0000000000e+00 0.0000e+00 -1.0000e+00
       25  2    1    2    0    0 +0.0000000000e+00 +0.0000000000e+00 +1.2497160435e+02 1.7675661768e+02 1.2500000000e+02 0.0000e+00 0.0000e+00
      -15  1    3    3    0    0 -1.8389683177e+01 +4.4247204784e+01 +9.5803490258e+01 1.0713291769e+02 1.7770000000e+00 0.0000e+00 -1.0000e+00
       15  1    3    3    0    0 +1.8214068240e+01 -2.9018408240e+01 +3.8652853800e+01 5.1681922705e+01 1.7770000000e+00 0.0000e+00 -1.0000e+00
       22  1    3    3    0    0 +1.7561493663e-01 -1.5228796545e+01 -9.4847397072e+00 1.7941777284e+01 0.0000000000e+00 0.0000e+00 -1.0000e+00
<mgrwt>
<rscale>  2 0.12500000E+03</rscale>
<asrwt>0</asrwt>
<pdfrwt beam="1">  1       21 0.22185898E-01 0.12500000E+03</pdfrwt>
<pdfrwt beam="2">  1       21 0.38077216E-02 0.12500000E+03</pdfrwt>
<totfact> 0.80305514E+06</totfact>
</mgrwt>
</event>
<event>
 6      0 +9.8758382e+01 1.25000000e+02 7.54677100e-03 1.12640300e-01
       21 -1    0    0  502  501 +0.0000000000e+00 +0.0000000000e+00 +1.1562602522e+01 1.1562602522e+01 0.0000000000e+00 0.0000e+00 -1.0000e+00
       21 -1    0    0  501  502 -0.0000000000e+00 -0.0000000000e+00 -3.3783484233e+02 3.3783484233e+02 0.0000000000e+00 0.0000e+00 -1.0000e+00
       25  2    1    2    0    0 +0.0000000000e+00 +0.0000000000e+00 -3.2627223981e+02 3.4939744485e+02 1.2500000000e+02 0.0000e+00 0.0000e+00
      -15  1    3    3    0    0 -2.3482141663e+01 -2.8169145007e+00 -7.0015021446e+00 2.4729026381e+01 1.7770000000e+00 0.0000e+00 -1.0000e+00
       15  1    3    3    0    0 +1.9671218474e+00 -1.5499041346e+01 -2.3996319642e+02 2.4047782271e+02 1.7770000000e+00 0.0000e+00 -1.0000e+00
       22  1    3    3    0    0 +2.1515019816e+01 +1.8315955847e+01 -7.9307541277e+01 8.4190595791e+01 0.0000000000e+00 0.0000e+00 -1.0000e+00
<mgrwt>
<rscale>  2 0.12500000E+03</rscale>
<asrwt>0</asrwt>
<pdfrwt beam="1">  1       21 0.17003826E-02 0.12500000E+03</pdfrwt>
<pdfrwt beam="2">  1       21 0.49681597E-01 0.12500000E+03</pdfrwt>
<totfact> 0.58590702E+06</totfact>
</mgrwt>
</event>
<event>
 6      0 +9.8758382e+01 1.25000000e+02 7.54677100e-03 1.12640300e-01
       21 -1    0    0  502  501 +0.0000000000e+00 +0.0000000000e+00 +1.2031354630e+01 1.2031354630e+01 0.0000000000e+00 0.0000e+00 -1.0000e+00
       21 -1    0    0  501  502 -0.0000000000e+00 -0.0000000000e+00 -3.2467250116e+02 3.2467250116e+02 0.0000000000e+00 0.0000e+00 -1.0000e+00
       25  2    1    2    0    0 +0.0000000000e+00 +0.0000000000e+00 -3.1264114653e+02 3.3670385579e+02 1.2500000000e+02 0.0000e+00 0.0000e+00
      -15  1    3    3    0    0 -1.7173418918e+01 +3.7494256516e+01 -7.3361276612e+01 8.4177076596e+01 1.7770000000e+00 0.0000e+00 -1.0000e+00
       15  1    3    3    0    0 -2.1675076252e+01 -2.0482666703e+01 -4.7501018539e+01 5.6114642091e+01 1.7770000000e+00 0.0000e+00 -1.0000e+00
       22  1    3    3    0    0 +3.8848495170e+01 -1.7011589814e+01 -1.9177885138e+02 1.9641213710e+02 0.0000000000e+00 0.0000e+00 -1.0000e+00
<mgrwt>
<rscale>  2 0.12500000E+03</rscale>
<asrwt>0</asrwt>
<pdfrwt beam="1">  1       21 0.17693164E-02 0.12500000E+03</pdfrwt>
<pdfrwt beam="2">  1       21 0.47745967E-01 0.12500000E+03</pdfrwt>
<totfact> 0.59910898E+06</totfact>
</mgrwt>
</event>
<event>
 6      0 +9.8758382e+01 1.25000000e+02 7.54677100e-03 1.12640300e-01
       21 -1    0    0  502  501 +0.0000000000e+00 +0.0000000000e+00 +1.8742712864e+01 1.8742712864e+01 0.0000000000e+00 0.0000e+00 -1.0000e+00
       21 -1    0    0  501  502 -0.0000000000e+00 -0.0000000000e+00 -2.0841433299e+02 2.0841433299e+02 0.0000000000e+00 0.0000e+00 -1.0000e+00
       25  2    1    2    0    0 +0.0000000000e+00 +0.0000000000e+00 -1.8967162012e+02 2.2715704585e+02 1.2500000000e+02 0.0000e+00 0.0000e+00
      -15  1    3    3    0    0 -1.0531997337e+01 -5.0956640055e+00 -7.0574858829e+01 7.1560164808e+01 1.7770000000e+00 0.0000e+00 -1.0000e+00
       15  1    3    3    0    0 +3.8678067344e+01 +3.3906753186e+01 -9.6619106727e+01 1.0947177864e+02 1.7770000000e+00 0.0000e+00 -1.0000e+00
       22  1    3    3    0    0 -2.8146070007e+01 -2.8811089181e+01 -2.2477654560e+01 4.6125102397e+01 0.0000000000e+00 0.0000e+00 -1.0000e+00
<mgrwt>
<rscale>  2 0.12500000E+03</rscale>
<asrwt>0</asrwt>
<pdfrwt beam="1">  1       21 0.27562812E-02 0.12500000E+03</pdfrwt>
<pdfrwt beam="2">  1       21 0.30649168E-01 0.12500000E+03</pdfrwt>
<totfact> 0.73019972E+06</totfact>
</mgrwt>
</event>
<event>
 6      0 +9.8758382e+01 1.25000000e+02 7.54677100e-03 1.12640300e-01
       21 -1    0    0  502  501 +0.0000000000e+00 +0.0000000000e+00 +1.1511925378e+02 1.1511925378e+02 0.0000000000e+00 0.0000e+00 -1.0000e+00
       21 -1    0    0  501  502 -0.0000000000e+00 -0.0000000000e+00 -3.3932203970e+01 3.3932203970e+01 0.0000000000e+00 0.0000e+00 -1.0000e+00
       25  2    1    2    0    0 +0.0000000000e+00 +0.0000000000e+00 +8.1187049806e+01 1.4905145775e+02 1.2500000000e+02 0.0000e+00 0.0000e+00
      -15  1    3    3    0    0 +3.4942262769e+01 +3.9251378633e+01 +5.7174094744e+01 7.7676684344e+01 1.7770000000e+00 0.0000e+00 -1.0000e+00
       15  1    3    3    0    0 -2.5954801890e+01 -1.8700269520e+01 +3.4091642265e+01 4.6784074455e+01 1.7770000000e+00 0.0000e+00 -1.0000e+00
       22  1    3    3    0    0 -8.9874608795e+00 -2.0551109113e+01 -1.0078687205e+01 2.4590698946e+01 0.0000000000e+00 0.0000e+00 -1.0000e+00
<mgrwt>
<rscale>  2 0.12500000E+03</rscale>
<asrwt>0</asrwt>
<pdfrwt beam="1">  1       21 0.16929302E-01 0.12500000E+03</pdfrwt>
<pdfrwt beam="2">  1       21 0.49900300E-02 0.12500000E+03</pdfrwt>
<totfact> 0.84784871E+06</totfact>
</mgrwt>
</event>
<event>
 6      0 +9.8758382e+01 1.25000000e+02 7.54677100e-03 1.12640300e-01
       21 -1    0    0  502  501 +0.0000000000e+00 +0.0000000000e+00 +2.8984468761e+02 2.8984468761e+02 0.0000000000e+00 0.0000e+00 -1.0000e+00
       21 -1    0    0  501  502 -0.0000000000e+00 -0.0000000000e+00 -1.3477045352e+01 1.3477045352e+01 0.0000000000e+00 0.0000e+00 -1.0000e+00
       25  2    1    2    0    0 +0.0000000000e+00 +0.0000000000e+00 +2.7636764226e+02 3.0332173297e+02 1.2500000000e+02 0.0000e+00 0.0000e+00
      -15  1    3    3    0    0 +2.8721285458e+01 +2.8830688885e+01 +3.9341997755e+01 5.6631010730e+01 1.7770000000e+00 0.0000e+00 -1.0000e+00
       15  1    3    3    0    0 -6.1241862660e+00 -2.9410490568e+01 +5.0398770337e+01 5.8699884099e+01 1.7770000000e+00 0.0000e+00 -1.0000e+00
       22  1    3    3    0    0 -2.2597099192e+01 +5.7980168306e-01 +1.8662687413e+02 1.8799083810e+02 0.0000000000e+00 0.0000e+00 -1.0000e+00
<mgrwt>
<rscale>  2 0.12500000E+03</rscale>
<asrwt>0</asrwt>
<pdfrwt beam="1">  1       21 0.42624215E-01 0.12500000E+03</pdfrwt>
<pdfrwt beam="2">  1       21 0.19819186E-02 0.12500000E+03</pdfrwt>
<totfact> 0.63569944E+06</totfact>
</mgrwt>
</event>
<event>
 6      0 +9.8758382e+01 1.25000000e+02 7.54677100e-03 1.12640300e-01
       21 -1    0    0  502  501 +0.0000000000e+00 +0.0000000000e+00 +7.1590173263e+00 7.1590173263e+00 0.0000000000e+00 0.0000e+00 1.0000e+00
       21 -1    0    0  501  502 -0.0000000000e+00 -0.0000000000e+00 -5.4564052885e+02 5.4564052885e+02 0.0000000000e+00 0.0000e+00 1.0000e+00
       25  2    1    2    0    0 +0.0000000000e+00 +0.0000000000e+00 -5.3848151153e+02 5.5279954618e+02 1.2500000000e+02 0.0000e+00 0.0000e+00
      -15  1    3    3    0    0 -3.8635277808e+01 -1.9214595220e+01 -1.1638983159e+02 1.2414361034e+02 1.7770000000e+00 0.0000e+00 -1.0000e+00
       15  1    3    3    0    0 -7.2421110614e+00 -8.9210555264e+00 -1.9209886704e+02 1.9245042440e+02 1.7770000000e+00 0.0000e+00 -1.0000e+00
       22  1    3    3    0    0 +4.5877388870e+01 +2.8135650746e+01 -2.2999281295e+02 2.3620551149e+02 0.0000000000e+00 0.0000e+00 -1.0000e+00
<mgrwt>
<rscale>  2 0.12500000E+03</rscale>
<asrwt>0</asrwt>
<pdfrwt beam="1">  1       21 0.10527968E-02 0.12500000E+03</pdfrwt>
<pdfrwt beam="2">  1       21 0.80241244E-01 0.12500000E+03</pdfrwt>
<totfact> 0.41606287E+06</totfact>
</mgrwt>
</event>
<event>
 6      0 +9.8758382e+01 1.25000000e+02 7.54677100e-03 1.12640300e-01
       21 -1    0    0  502  501 +0.0000000000e+00 +0.0000000000e+00 +5.0395066317e+01 5.0395066317e+01 0.0000000000e+00 0.0000e+00 -1.0000e+00
       21 -1    0    0  501  502 -0.0000000000e+00 -0.0000000000e+00 -7.7512548063e+01 7.7512548063e+01 0.0000000000e+00 0.0000e+00 -1.0000e+00
       25  2    1    2    0    0 +0.0000000000e+00 +0.0000000000e+00 -2.7117481746e+01 1.2790761438e+02 1.2500000000e+02 0.0000e+00 0.0000e+00
      -15  1    3    3    0    0 +1.0009207500e+01 +1.6513423181e+01 -3.9062599067e+01 4.3611027903e+01 1.7770000000e+00 0.0000e+00 -1.0000e+00
       15  1    3    3    0    0 +3.2455714598e+01 +5.6005034243e+00 -5.3024256179e+00 3.3406773191e+01 1.7770000000e+00 0.0000e+00 -1.0000e+00
       22  1    3    3    0    0 -4.2464922097e+01 -2.2113926605e+01 +1.7247542939e+01 5.0889813285e+01 0.0000000000e+00 0.0000e+00 -1.0000e+00
<mgrwt>
<rscale>  2 0.12500000E+03</rscale>
<asrwt>0</asrwt>
<pdfrwt beam="1">  1       21 0.74110392E-02 0.12500000E+03</pdfrwt>
<pdfrwt beam="2">  1       21 0.11398904E-01 0.12500000E+03</pdfrwt>
<totfact> 0.88473957E+06</totfact>
</mgrwt>
</event>
<event>
 6      0 +9.8758382e+01 1.25000000e+02 7.54677100e-03 1.12640300e-01
       21 -1    0    0  502  501 +0.0000000000e+00 +0.0000000000e+00 +3.9631762631e+02 3.9631762631e+02 0.0000000000e+00 0.0000e+00 1.0000e+00
       21 -1    0    0  501  502 -0.0000000000e+00 -0.0000000000e+00 -9.8563620205e+00 9.8563620205e+00 0.0000000000e+00 0.0000e+00 1.0000e+00
       25  2    1    2    0    0 +0.0000000000e+00 +0.0000000000e+00 +3.8646126429e+02 4.0617398833e+02 1.2500000000e+02 0.0000e+00 0.0000e+00
      -15  1    3    3    0    0 -3.4095411782e+00 +2.2446679631e+01 +4.8551667900e+01 5.3627423790e+01 1.7770000000e+00 0.0000e+00 -1.0000e+00
       15  1    3    3    0    0 +5.4866620347e+00 +2.9102461732e+00 +3.2298635609e+02 3.2305095100e+02 1.7770000000e+00 0.0000e+00 -1.0000e+00
       22  1    3    3    0    0 -2.0771208565e+00 -2.5356925804e+01 +1.4923240311e+01 2.9495613551e+01 0.0000000000e+00 0.0000e+00 -1.0000e+00
<mgrwt>
<rscale>  2 0.12500000E+03</rscale>
<asrwt>0</asrwt>
<pdfrwt beam="1">  1       21 0.58281993E-01 0.12500000E+03</pdfrwt>
<pdfrwt beam="2">  1       21 0.14494653E-02 0.12500000E+03</pdfrwt>
<totfact> 0.53089447E+06</totfact>
</mgrwt>
</event>
<event>
 6      0 +9.8758382e+01 1.25000000e+02 7.54677100e-03 1.12640300e-01
       21 -1    0    0  502  501 +0.0000000000e+00 +0.0000000000e+00 +3.8680346175e+01 3.8680346175e+01 0.0000000000e+00 0.0000e+00 1.0000e+00
       21 -1    0    0  501  502 -0.0000000000e+00 -0.0000000000e+00 -1.0098797933e+02 1.0098797933e+02 0.0000000000e+00 0.0000e+00 1.0000e+00
       25  2    1    2    0    0 +0.0000000000e+00 +0.0000000000e+00 -6.2307633157e+01 1.3966832551e+02 1.2500000000e+02 0.0000e+00 0.0000e+00
      -15  1    3    3    0    0 +2.1744784159e+01 +3.3664463164e+01 -4.6544583653e+01 6.1446624925e+01 1.7770000000e+00 0.0000e+00 -1.0000e+00
       15  1    3    3    0    0 +1.0619051403e+01 +7.4380853752e+00 -2.1937193699e+01 2.5543836108e+01 1.7770000000e+00 0.0000e+00 -1.0000e+00
       22  1    3    3    0    0 -3.2363835562e+01 -4.1102548539e+01 +6.1741441976e+00 5.2677864472e+01 0.0000000000e+00 0.0000e+00 -1.0000e+00
<mgrwt>
<rscale>  2 0.12500000E+03</rscale>
<asrwt>0</asrwt>
<pdfrwt beam="1">  1       21 0.56882863E-02 0.12500000E+03</pdfrwt>
<pdfrwt beam="2">  1       21 0.14851173E-01 0.12500000E+03</pdfrwt>
<totfact> 0.86397634E+06</totfact>
</mgrwt>
</event>
<event>
 6      0 +9.8758382e+01 1.25000000e+02 7.54677100e-03 1.12640300e-01
       21 -1    0    0  502  501 +0.0000000000e+00 +0.0000000000e+00 +1.2425517705e+00 1.2425517705e+00 0.0000000000e+00 0.0000e+00 -1.0000e+00
       21 -1    0    0  501  502 -0.0000000000e+00 -0.0000000000e+00 -3.1437321910e+03 3.1437321910e+03 0.0000000000e+00 0.0000e+00 -1.0000e+00
       25  2    1    2    0    0 +0.0000000000e+00 +0.0000000000e+00 -3.1424896392e+03 3.1449747427e+03 1.2500000000e+02 0.0000e+00 0.0000e+00
      -15  1    3    3    0    0 +1.5752458272e+01 -3.6959804647e-01 -1.2134197182e+02 1.2237364258e+02 1.7770000000e+00 0.0000e+00 1.0000e+00
       15  1    3    3    0    0 -3.7251503484e+01 +8.7724472360e+00 -2.7980888679e+03 2.7983511397e+03 1.7770000000e+00 0.0000e+00 -1.0000e+00
       22  1    3    3    0    0 +2.1499045212e+01 -8.4028491895e+00 -2.2305882542e+02 2.2424998644e+02 0.0000000000e+00 0.0000e+00 -1.0000e+00
<mgrwt>
<rscale>  2 0.12500000E+03</rscale>
<asrwt>0</asrwt>
<pdfrwt beam="1">  1       21 0.18272542E-03 0.12500000E+03</pdfrwt>
<pdfrwt beam="2">  1       21 0.46232060E+00 0.12500000E+03</pdfrwt>
<totfact> 0.10642565E+05</totfact>
</mgrwt>
</event>
<event>
 6      0 +9.8758382e+01 1.25000000e+02 7.54677100e-03 1.12640300e-01
       21 -1    0    0  502  501 +0.0000000000e+00 +0.0000000000e+00 +9.6221112435e+00 9.6221112435e+00 0.0000000000e+00 0.0000e+00 1.0000e+00
       21 -1    0    0  501  502 -0.0000000000e+00 -0.0000000000e+00 -4.0596599864e+02 4.0596599864e+02 0.0000000000e+00 0.0000e+00 1.0000e+00
       25  2    1    2    0    0 +0.0000000000e+00 +0.0000000000e+00 -3.9634388740e+02 4.1558810989e+02 1.2500000000e+02 0.0000e+00 0.0000e+00
      -15  1    3    3    0    0 -4.8914234151e+00 +2.7504260540e+00 +6.9036353527e+00 9.0724184524e+00 1.7770000000e+00 0.0000e+00 -1.0000e+00
       15  1    3    3    0    0 -1.1516358490e+01 +1.6090769803e-01 -2.1929386408e+01 2.4833608707e+01 1.7770000000e+00 0.0000e+00 -1.0000e+00
       22  1    3    3    0    0 +1.6407781905e+01 -2.9113337520e+00 -3.8131813631e+02 3.8168208270e+02 0.0000000000e+00 0.0000e+00 -1.0000e+00
<mgrwt>
<rscale>  2 0.12500000E+03</rscale>
<asrwt>0</asrwt>
<pdfrwt beam="1">  1       21 0.14150170E-02 0.12500000E+03</pdfrwt>
<pdfrwt beam="2">  1       21 0.59700855E-01 0.12500000E+03</pdfrwt>
<totfact> 0.52240141E+06</totfact>
</mgrwt>
</event>
<event>
 6      0 +9.8758382e+01 1.25000000e+02 7.54677100e-03 1.12640300e-01
       21 -1    0    0  502  501 +0.0000000000e+00 +0.0000000000e+00 +3.5497736820e+02 3.5497736820e+02 0.0000000000e+00 0.0000e+00 -1.0000e+00
       21 -1    0    0  501  502 -0.0000000000e+00 -0.0000000000e+00 -1.1004222663e+01 1.1004222663e+01 0.0000000000e+00 0.0000e+00 -1.0000e+00
       25  2    1    2    0    0 +0.0000000000e+00 +0.0000000000e+00 +3.4397314554e+02 3.6598159086e+02 1.2500000000e+02 0.0000e+00 0.0000e+00
      -15  1    3    3    0    0 -6.0232855985e+00 -3.3239611031e+00 +1.1796002242e+01 1.3770696595e+01 1.7770000000e+00 0.0000e+00 -1.0000e+00
       15  1    3    3    0    0 +2.6663839875e+01 -5.9010638833e+00 +9.8402917331e+00 2.9082159174e+01 1.7770000000e+00 0.0000e+00 -1.0000e+00
       22  1    3    3    0    0 -2.0640554276e+01 +9.2250249864e+00 +3.2233685161e+02 3.2312873514e+02 0.0000000000e+00 0.0000e+00 -1.0000e+00
<mgrwt>
<rscale>  2 0.12500000E+03</rscale>
<asrwt>0</asrwt>
<pdfrwt beam="1">  1       21 0.52202547E-01 0.12500000E+03</pdfrwt>
<pdfrwt beam="2">  1       21 0.16182683E-02 0.12500000E+03</pdfrwt>
<totfact> 0.56917524E+06</totfact>
</mgrwt>
</event>
<event>
 6      0 +9.8758382e+01 1.25000000e+02 7.54677100e-03 1.12640300e-01
       21 -1    0    0  502  501 +0.0000000000e+00 +0.0000000000e+00 +5.2885883794e+01 5.2885883794e+01 0.0000000000e+00 0.0000e+00 -1.0000e+00
       21 -1    0    0  501  502 -0.0000000000e+00 -0.0000000000e+00 -7.3861864826e+01 7.3861864826e+01 0.0000000000e+00 0.0000e+00 -1.0000e+00
       25  2    1    2    0    0 +0.0000000000e+00 +0.0000000000e+00 -2.0975981032e+01 1.2674774862e+02 1.2500000000e+02 0.0000e+00 0.0000e+00
      -15  1    3    3    0    0 -2.2185605311e+01 +2.9685199521e+01 -6.4045430616e+00 3.7650870567e+01 1.7770000000e+00 0.0000e+00 -1.0000e+00
       15  1    3    3    0    0 -1.3078699285e+01 -2.3580740794e+01 -3.7773910238e+01 4.6444910756e+01 1.7770000000e+00 0.0000e+00 -1.0000e+00
       22  1    3    3    0    0 +3.5264304596e+01 -6.1044587264e+00 +2.3202472269e+01 4.2651967297e+01 0.0000000000e+00 0.0000e+00 -1.0000e+00
<mgrwt>
<rscale>  2 0.12500000E+03</rscale>
<asrwt>0</asrwt>
<pdfrwt beam="1">  1       21 0.77773359E-02 0.12500000E+03</pdfrwt>
<pdfrwt beam="2">  1       21 0.10862039E-01 0.12500000E+03</pdfrwt>
<totfact> 0.88678071E+06</totfact>
</mgrwt>
</event>
<event>
 6      0 +9.8758382e+01 1.25000000e+02 7.54677100e-03 1.12640300e-01
       21 -1    0    0  502  501 +0.0000000000e+00 +0.0000000000e+00 +7.0463292792e+01 7.0463292792e+01 0.0000000000e+00 0.0000e+00 -1.0000e+00
       21 -1    0    0  501  502 -0.0000000000e+00 -0.0000000000e+00 -5.5436665606e+01 5.5436665606e+01 0.0000000000e+00 0.0000e+00 -1.0000e+00
       25  2    1    2    0    0 +0.0000000000e+00 +0.0000000000e+00 +1.5026627187e+01 1.2589995840e+02 1.2500000000e+02 0.0000e+00 0.0000e+00
      -15  1    3    3    0    0 +1.4533133999e+01 +3.0481294115e+01 +2.7853643994e+01 4.3809867467e+01 1.7770000000e+00 0.0000e+00 -1.0000e+00
       15  1    3    3    0    0 +2.5421166148e+01 -5.3689985384e+00 -2.1909725648e+01 3.4033155019e+01 1.7770000000e+00 0.0000e+00 -1.0000e+00
       22  1    3    3    0    0 -3.9954300147e+01 -2.5112295576e+01 +9.0827088403e+00 4.8056935911e+01 0.0000000000e+00 0.0000e+00 -1.0000e+00
<mgrwt>
<rscale>  2 0.12500000E+03</rscale>
<asrwt>0</asrwt>
<pdfrwt beam="1">  1       21 0.10362249E-01 0.12500000E+03</pdfrwt>
<pdfrwt beam="2">  1       21 0.81524508E-02 0.12500000E+03</pdfrwt>
<totfact> 0.88829896E+06</totfact>
</mgrwt>
</event>
<event>
 6      0 +9.8758382e+01 1.25000000e+02 7.54677100e-03 1.12640300e-01
       21 -1    0    0  502  501 +0.0000000000e+00 +0.0000000000e+00 +2.3260925898e+01 2.3260925898e+01 0.0000000000e+00 0.0000e+00 1.0000e+00
       21 -1    0    0  501  502 -0.0000000000e+00 -0.0000000000e+00 -1.6793183630e+02 1.6793183630e+02 0.0000000000e+00 0.0000e+00 1.0000e+00
       25  2    1    2    0    0 +0.0000000000e+00 +0.0000000000e+00 -1.4467091040e+02 1.9119276219e+02 1.2500000000e+02 0.0000e+00 0.0000e+00
      -15  1    3    3    0    0 -2.2011477774e+01 -1.0370883517e+01 -4.8040972880e+01 5.3880916686e+01 1.7770000000e+00 0.0000e+00 -1.0000e+00
       15  1    3    3    0    0 -9.7178956727e-01 -3.4207159560e+01 -7.5453917284e+01 8.2870534586e+01 1.7770000000e+00 0.0000e+00 -1.0000e+00
       22  1    3    3    0    0 +2.2983267341e+01 +4.4578043078e+01 -2.1176020246e+01 5.4441310931e+01 0.0000000000e+00 0.0000e+00 -1.0000e+00
<mgrwt>
<rscale>  2 0.12500000E+03</rscale>
<asrwt>0</asrwt>
<pdfrwt beam="1">  1       21 0.34207245E-02 0.12500000E+03</pdfrwt>
<pdfrwt beam="2">  1       21 0.24695858E-01 0.12500000E+03</pdfrwt>
<totfact> 0.78119801E+06</totfact>
</mgrwt>
</event>
<event>
 6      0 +9.8758382e+01 1.25000000e+02 7.54677100e-03 1.12640300e-01
       21 -1    0    0  502  501 +0.0000000000e+00 +0.0000000000e+00 +4.0363364311e+02 4.0363364311e+02 0.0000000000e+00 0.0000e+00 1.0000e+00
       21 -1    0    0  501  502 -0.0000000000e+00 -0.0000000000e+00 -9.6777116246e+00 9.6777116246e+00 0.0000000000e+00 0.0000e+00 1.0000e+00
       25  2    1    2    0    0 +0.0000000000e+00 +0.0000000000e+00 +3.9395593148e+02 4.1331135473e+02 1.2500000000e+02 0.0000e+00 0.0000e+00
      -15  1    3    3    0    0 -1.8112778204e+01 +1.0721112195e+00 +9.2043246722e+00 2.0423013450e+01 1.7770000000e+00 0.0000e+00 -1.0000e+00
       15  1    3    3    0    0 -2.0475116016e+01 -1.5236993981e+01 +5.5886586729e+01 6.1464336543e+01 1.7770000000e+00 0.0000e+00 -1.0000e+00
       22  1    3    3    0    0 +3.8587894220e+01 +1.4164882762e+01 +3.2886502007e+02 3.3142400473e+02 0.0000000000e+00 0.0000e+00 -1.0000e+00
<mgrwt>
<rscale>  2 0.12500000E+03</rscale>
<asrwt>0</asrwt>
<pdfrwt beam="1">  1       21 0.59357877E-01 0.12500000E+03</pdfrwt>
<pdfrwt beam="2">  1       21 0.14231932E-02 0.12500000E+03</pdfrwt>
<totfact> 0.52443959E+06</totfact>
</mgrwt>
</event>
<event>
 6      0 +9.8758382e+01 1.25000000e+02 7.54677100e-03 1.12640300e-01
       21 -1    0    0  502  501 +0.0000000000e+00 +0.0000000000e+00 +9.9527833878e+01 9.9527833878e+01 0.0000000000e+00 0.0000e+00 1.0000e+00
       21 -1    0    0  501  502 -0.0000000000e+00 -0.0000000000e+00 -3.9247814885e+01 3.9247814885e+01 0.0000000000e+00 0.0000e+00 1.0000e+00
       25  2    1    2    0    0 +0.0000000000e+00 +0.0000000000e+00 +6.0280018993e+01 1.3877564876e+02 1.2500000000e+02 0.0000e+00 0.0000e+00
      -15  1    3    3    0    0 +2.6078459759e+01 +4.9557149325e+00 +4.4952004588e+00 2.6981655435e+01 1.7770000000e+00 0.0000e+00 -1.0000e+00
       15  1    3    3    0    0 -4.3647309208e+01 +4.6400218789e+00 -8.2551170046e+00 4.4698121772e+01 1.7770000000e+00 0.0000e+00 -1.0000e+00
       22  1    3    3    0    0 +1.7568849449e+01 -9.5957368114e+00 +6.4039935541e+01 6.7095871557e+01 0.0000000000e+00 0.0000e+00 -1.0000e+00
<mgrwt>
<rscale>  2 0.12500000E+03</rscale>
<asrwt>0</asrwt>
<pdfrwt beam="1">  1       21 0.14636446E-01 0.12500000E+03</pdfrwt>
<pdfrwt beam="2">  1       21 0.57717375E-02 0.12500000E+03</pdfrwt>
<totfact> 0.86551700E+06</totfact>
</mgrwt>
</event>
<event>
 6      0 +9.8758382e+01 1.25000000e+02 7.54677100e-03 1.12640300e-01
       21 -1    0    0  502  501 +0.0000000000e+00 +0.0000000000e+00 +5.5360847691e+00 5.5360847691e+00 0.0000000000e+00 0.0000e+00 -1.0000e+00
       21 -1    0    0  501  502 -0.0000000000e+00 -0.0000000000e+00 -7.0559793843e+02 7.0559793843e+02 0.0000000000e+00 0.0000e+00 -1.0000e+00
       25  2    1    2    0    0 +0.0000000000e+00 +0.0000000000e+00 -7.0006185366e+02 7.1113402320e+02 1.2500000000e+02 0.0000e+00 0.0000e+00
      -15  1    3    3    0    0 -1.4766504141e+00 -6.1286840460e+00 -6.7285612540e+01 6.7603643752e+01 1.7770000000e+00 0.0000e+00 -1.0000e+00
       15  1    3    3    0    0 -4.3130089486e+01 +9.3875275794e+00 -1.0570014092e+02 1.1456006204e+02 1.7770000000e+00 0.0000e+00 -1.0000e+00
       22  1    3    3    0    0 +4.4606739900e+01 -3.2588435333e+00 -5.2707610013e+02 5.2897031735e+02 0.0000000000e+00 0.0000e+00 -1.0000e+00
<mgrwt>
<rscale>  2 0.12500000E+03</rscale>
<asrwt>0</asrwt>
<pdfrwt beam="1">  1       21 0.81413127E-03 0.12500000E+03</pdfrwt>
<pdfrwt beam="2">  1       21 0.10376426E+00 0.12500000E+03</pdfrwt>
<totfact> 0.32352988E+06</totfact>
</mgrwt>
</event>
<event>
 6      0 +9.8758382e+01 1.25000000e+02 7.54677100e-03 1.12640300e-01
       21 -1    0    0  502  501 +0.0000000000e+00 +0.0000000000e+00 +1.1715754827e+01 1.1715754827e+01 0.0000000000e+00 0.0000e+00 1.0000e+00
       21 -1    0    0  501  502 -0.0000000000e+00 -0.0000000000e+00 -3.3341855114e+02 3.3341855114e+02 0.0000000000e+00 0.0000e+00 1.0000e+00
       25  2    1    2    0    0 +0.0000000000e+00 +0.0000000000e+00 -3.2170279631e+02 3.4513430596e+02 1.2500000000e+02 0.0000e+00 0.0000e+00
      -15  1    3    3    0    0 -4.2011620518e+01 -2.3473018314e+01 -1.1104632354e+02 1.2103884727e+02 1.7770000000e+00 0.0000e+00 -1.0000e+00
       15  1    3    3    0    0 +1.6050903560e+01 -1.8653250655e+01 -9.7859924961e+01 1.0092223693e+02 1.7770000000e+00 0.0000e+00 -1.0000e+00
       22  1    3    3    0    0 +2.5960716958e+01 +4.2126268969e+01 -1.1279654785e+02 1.2317322180e+02 0.0000000000e+00 0.0000e+00 -1.0000e+00
<mgrwt>
<rscale>  2 0.12500000E+03</rscale>
<asrwt>0</asrwt>
<pdfrwt beam="1">  1       21 0.17229055E-02 0.12500000E+03</pdfrwt>
<pdfrwt beam="2">  1       21 0.49032130E-01 0.12500000E+03</pdfrwt>
<totfact> 0.59030027E+06</totfact>
</mgrwt>
</event>
<event>
 6      0 +9.8758382e+01 1.25000000e+02 7.54677100e-03 1.12640300e-01
       21 -1    0    0  502  501 +0.0000000000e+00 +0.0000000000e+00 +2.0667509713e+02 2.0667509713e+02 0.0000000000e+00 0.0000e+00 -1.0000e+00
       21 -1    0    0  501  502 -0.0000000000e+00 -0.0000000000e+00 -1.8900438680e+01 1.8900438680e+01 0.0000000000e+00 0.0000e+00 -1.0000e+00
       25  2    1    2    0    0 +0.0000000000e+00 +0.0000000000e+00 +1.8777465845e+02 2.2557553581e+02 1.2500000000e+02 0.0000e+00 0.0000e+00
      -15  1    3    3    0    0 -1.0478741097e+01 +1.7131819161e+00 +6.3135244963e+01 6.4046513510e+01 1.7770000000e+00 0.0000e+00 -1.0000e+00
       15  1    3    3    0    0 +1.2829632318e+01 -2.0510459173e+00 +1.4270587275e+02 1.4330711812e+02 1.7770000000e+00 0.0000e+00 -1.0000e+00
       22  1    3    3    0    0 -2.3508912207e+00 +3.3786400116e-01 -1.8066459268e+01 1.8221904185e+01 0.0000000000e+00 0.0000e+00 -1.0000e+00
<mgrwt>
<rscale>  2 0.12500000E+03</rscale>
<asrwt>0</asrwt>
<pdfrwt beam="1">  1       21 0.30393395E-01 0.12500000E+03</pdfrwt>
<pdfrwt beam="2">  1       21 0.27794764E-02 0.12500000E+03</pdfrwt>
<totfact> 0.73233619E+06</totfact>
</mgrwt>
</event>
<event>
 6      0 +9.8758382e+01 1.25000000e+02 7.54677100e-03 1.12640300e-01
       21 -1    0    0  502  501 +0.0000000000e+00 +0.0000000000e+00 +2.3561330603e+02 2.3561330603e+02 0.0000000000e+00 0.0000e+00 -1.0000e+00
       21 -1    0    0  501  502 -0.0000000000e+00 -0.0000000000e+00 -1.6579072149e+01 1.6579072149e+01 0.0000000000e+00 0.0000e+00 -1.0000e+00
       25  2    1    2    0    0 +0.0000000000e+00 +0.0000000000e+00 +2.1903423388e+02 2.5219237818e+02 1.2500000000e+02 0.0000e+00 0.0000e+00
      -15  1    3    3    0    0 -3.3484012431e+00 -2.0455711912e+00 -4.1316615199e+00 5.9686270012e+00 1.7770000000e+00 0.0000e+00 -1.0000e+00
       15  1    3    3    0    0 +2.5364961620e+01 -3.9611077221e+01 +5.9254483652e+01 7.5674766459e+01 1.7770000000e+00 0.0000e+00 -1.0000e+00
       22  1    3    3    0    0 -2.2016560377e+01 +4.1656648412e+01 +1.6391141174e+02 1.7054898471e+02 0.0000000000e+00 0.0000e+00 -1.0000e+00
<mgrwt>
<rscale>  2 0.12500000E+03</rscale>
<asrwt>0</asrwt>
<pdfrwt beam="1">  1       21 0.34649014E-01 0.12500000E+03</pdfrwt>
<pdfrwt beam="2">  1       21 0.24380990E-02 0.12500000E+03</pdfrwt>
<totfact> 0.69722157E+06</totfact>
</mgrwt>
</event>
<event>
 6      0 +9.8758382e+01 1.25000000e+02 7.54677100e-03 1.12640300e-01
       21 -1    0    0  502  501 +0.0000000000e+00 +0.0000000000e+00 +7.2468062622e+02 7.2468062622e+02 0.0000000000e+00 0.0000e+00 1.0000e+00
       21 -1    0    0  501  502 -0.0000000000e+00 -0.0000000000e+00 -5.3903055479e+00 5.3903055479e+00 0.0000000000e+00 0.0000e+00 1.0000e+00
       25  2    1    2    0    0 +0.0000000000e+00 +0.0000000000e+00 +7.1929032067e+02 7.3007093177e+02 1.2500000000e+02 0.0000e+00 0.0000e+00
      -15  1    3    3    0    0 -1.6254333284e+01 +5.1077313309e+00 +2.5655461476e+01 3.0848868737e+01 1.7770000000e+00 0.0000e+00 -1.0000e+00
       15  1    3    3    0    0 +3.7581917041e+01 -3.5072191549e+01 +4.0239989348e+02 4.0567387285e+02 1.7770000000e+00 0.0000e+00 -1.0000e+00
       22  1    3    3    0    0 -2.1327583757e+01 +2.9964460219e+01 +2.9123496558e+02 2.9354819005e+02 0.0000000000e+00 0.0000e+00 -1.0000e+00
<mgrwt>
<rscale>  2 0.12500000E+03</rscale>
<asrwt>0</asrwt>
<pdfrwt beam="1">  1       21 0.10657061E+00 0.12500000E+03</pdfrwt>
<pdfrwt beam="2">  1       21 0.79269249E-03 0.12500000E+03</pdfrwt>
<totfact> 0.31430916E+06</totfact>
</mgrwt>
</event>
<event>
 6      0 +9.8758382e+01 1.25000000e+02 7.54677100e-03 1.12640300e-01
       21 -1    0    0  502  501 +0.0000000000e+00 +0.0000000000e+00 +2.7802825596e+01 2.7802825596e+01 0.0000000000e+00 0.0000e+00 1.0000e+00
       21 -1    0    0  501  502 -0.0000000000e+00 -0.0000000000e+00 -1.4049830966e+02 1.4049830966e+02 0.0000000000e+00 0.0000e+00 1.0000e+00
       25  2    1    2    0    0 +0.0000000000e+00 +0.0000000000e+00 -1.1269548407e+02 1.6830113526e+02 1.2500000000e+02 0.0000e+00 0.0000e+00
      -15  1    3    3    0    0 +3.5645592260e+00 -3.7674855432e+01 -5.9541697448e+00 3.8349845902e+01 1.7770000000e+00 0.0000e+00 -1.0000e+00
       15  1    3    3    0    0 -1.5568096461e+01 -7.8669262828e+00 -5.6394952249e+00 1.8417811812e+01 1.7770000000e+00 0.0000e+00 -1.0000e+00
       22  1    3    3    0    0 +1.2003537235e+01 +4.5541781715e+01 -1.0110181910e+02 1.1153347755e+02 0.0000000000e+00 0.0000e+00 -1.0000e+00
<mgrwt>
<rscale>  2 0.12500000E+03</rscale>
<asrwt>0</asrwt>
<pdfrwt beam="1">  1       21 0.40886508E-02 0.12500000E+03</pdfrwt>
<pdfrwt beam="2">  1       21 0.20661516E-01 0.12500000E+03</pdfrwt>
<totfact> 0.81634818E+06</totfact>
</mgrwt>
</event>
<event>
 6      0 +9.8758382e+01 1.25000000e+02 7.54677100e-03 1.12640300e-01
       21 -1    0    0  502  501 +0.0000000000e+00 +0.0000000000e+00 +9.0247631077e+01 9.0247631077e+01 0.0000000000e+00 0.0000e+00 -1.0000e+00
       21 -1    0    0  501  502 -0.0000000000e+00 -0.0000000000e+00 -4.3283684606e+01 4.3283684606e+01 0.0000000000e+00 0.0000e+00 -1.0000e+00
       25  2    1    2    0    0 +0.0000000000e+00 +0.0000000000e+00 +4.6963946470e+01 1.3353131568e+02 1.2500000000e+02 0.0000e+00 0.0000e+00
      -15  1    3    3    0    0 +3.3297388144e+01 -2.4685188402e+01 -1.7549307314e+01 4.5046759038e+01 1.7770000000e+00 0.0000e+00 -1.0000e+00
       15  1    3    3    0    0 -2.7944312209e+00 +5.8658532600e+00 -6.2329647678e+00 9.1773993662e+00 1.7770000000e+00 0.0000e+00 -1.0000e+00
       22  1    3    3    0    0 -3.0502956923e+01 +1.8819335142e+01 +7.0746218553e+01 7.9307157280e+01 0.0000000000e+00 0.0000e+00 -1.0000e+00
<mgrwt>
<rscale>  2 0.12500000E+03</rscale>
<asrwt>0</asrwt>
<pdfrwt beam="1">  1       21 0.13271710E-01 0.12500000E+03</pdfrwt>
<pdfrwt beam="2">  1       21 0.63652477E-02 0.12500000E+03</pdfrwt>
<totfact> 0.87464011E+06</totfact>
</mgrwt>
</event>
<event>
 6      0 +9.8758382e+01 1.25000000e+02 7.54677100e-03 1.12640300e-01
       21 -1    0    0  502  501 +0.0000000000e+00 +0.0000000000e+00 +3.4614379721e+01 3.4614379721e+01 0.0000000000e+00 0.0000e+00 -1.0000e+00
       21 -1    0    0  501  502 -0.0000000000e+00 -0.0000000000e+00 -1.1285049831e+02 1.1285049831e+02 0.0000000000e+00 0.0000e+00 -1.0000e+00
       25  2    1    2    0    0 +0.0000000000e+00 +0.0000000000e+00 -7.8236118585e+01 1.4746487803e+02 1.2500000000e+02 0.0000e+00 0.0000e+00
      -15  1    3    3    0    0 -3.7176531679e+01 +2.9488939838e+00 -7.9611803961e+01 8.7931720911e+01 1.7770000000e+00 0.0000e+00 -1.0000e+00
       15  1    3    3    0    0 +7.3467783593e+00 +1.1250663299e+01 -1.6990312236e+01 2.1734328050e+01 1.7770000000e+00 0.0000e+00 -1.0000e+00
       22  1    3    3    0    0 +2.9829753319e+01 -1.4199557283e+01 +1.8365997615e+01 3.7798829064e+01 0.0000000000e+00 0.0000e+00 -1.0000e+00
<mgrwt>
<rscale>  2 0.12500000E+03</rscale>
<asrwt>0</asrwt>
<pdfrwt beam="1">  1       21 0.50903500E-02 0.12500000E+03</pdfrwt>
<pdfrwt beam="2">  1       21 0.16595661E-01 0.12500000E+03</pdfrwt>
<totfact> 0.85053153E+06</totfact>
</mgrwt>
</event>
<event>
 6      0 +9.8758382e+01 1.25000000e+02 7.54677100e-03 1.12640300e-01
       21 -1    0    0  502  501 +0.0000000000e+00 +0.0000000000e+00 +3.0950321940e+02 3.0950321940e+02 0.0000000000e+00 0.0000e+00 1.0000e+00
       21 -1    0    0  501  502 -0.0000000000e+00 -0.0000000000e+00 -1.2621031883e+01 1.2621031883e+01 0.0000000000e+00 0.0000e+00 1.0000e+00
       25  2    1    2    0    0 +0.0000000000e+00 +0.0000000000e+00 +2.9688218752e+02 3.2212425128e+02 1.2500000000e+02 0.0000e+00 0.0000e+00
      -15  1    3    3    0    0 -1.5651877321e+00 -2.1588756445e+00 +2.1126062973e+02 2.1128493074e+02 1.7770000000e+00 0.0000e+00 -1.0000e+00
       15  1    3    3    0    0 +2.0663711275e+01 -1.8719893959e+01 +9.3078634118e+00 2.9448555885e+01 1.7770000000e+00 0.0000e+00 -1.0000e+00
       22  1    3    3    0    0 -1.9098523543e+01 +2.0878769603e+01 +7.6313694413e+01 8.1390764689e+01 0.0000000000e+00 0.0000e+00 -1.0000e+00
<mgrwt>
<rscale>  2 0.12500000E+03</rscale>
<asrwt>0</asrwt>
<pdfrwt beam="1">  1       21 0.45515174E-01 0.12500000E+03</pdfrwt>
<pdfrwt beam="2">  1       21 0.18560343E-02 0.12500000E+03</pdfrwt>
<totfact> 0.61474115E+06</totfact>
</mgrwt>
</event>
<event>
 6      0 +9.8758382e+01 1.25000000e+02 7.54677100e-03 1.12640300e-01
       21 -1    0    0  502  501 +0.0000000000e+00 +0.0000000000e+00 +1.6381509436e+01 1.6381509436e+01 0.0000000000e+00 0.0000e+00 -1.0000e+00
       21 -1    0    0  501  502 -0.0000000000e+00 -0.0000000000e+00 -2.3845482709e+02 2.3845482709e+02 0.0000000000e+00 0.0000e+00 -1.0000e+00
       25  2    1    2    0    0 +0.0000000000e+00 +0.0000000000e+00 -2.2207331765e+02 2.5483633653e+02 1.2500000000e+02 0.0000e+00 0.0000e+00
      -15  1    3    3    0    0 +3.4806809956e+00 +1.9905949608e+01 -3.8884563445e+01 4.3858054828e+01 1.7770000000e+00 0.0000e+00 -1.0000e+00
       15  1    3    3    0    0 +7.0836546707e+00 +3.3033680025e+01 -2.0478463010e+01 3.9546521411e+01 1.7770000000e+00 0.0000e+00 -1.0000e+00
       22  1    3    3    0    0 -1.0564335666e+01 -5.2939629633e+01 -1.6271029117e+02 1.7143176026e+02 0.0000000000e+00 0.0000e+00 -1.0000e+00
<mgrwt>
<rscale>  2 0.12500000E+03</rscale>
<asrwt>0</asrwt>
<pdfrwt beam="1">  1       21 0.24090456E-02 0.12500000E+03</pdfrwt>
<pdfrwt beam="2">  1       21 0.35066885E-01 0.12500000E+03</pdfrwt>
<totfact> 0.69385477E+06</totfact>
</mgrwt>
</event>
<event>
 6      0 +9.8758382e+01 1.25000000e+02 7.54677100e-03 1.12640300e-01
       21 -1    0    0  502  501 +0.0000000000e+00 +0.0000000000e+00 +2.9507691005e+02 2.9507691005e+02 0.0000000000e+00 0.0000e+00 -1.0000e+00
       21 -1    0    0  501  502 -0.0000000000e+00 -0.0000000000e+00 -1.3238074098e+01 1.3238074098e+01 0.0000000000e+00 0.0000e+00 -1.0000e+00
       25  2    1    2    0    0 +0.0000000000e+00 +0.0000000000e+00 +2.8183883596e+02 3.0831498415e+02 1.2500000000e+02 0.0000e+00 0.0000e+00
      -15  1    3    3    0    0 +1.4811412170e+01 -2.9460201427e+00 -5.7339244414e+00 1.6250925625e+01 1.7770000000e+00 0.0000e+00 -1.0000e+00
       15  1    3    3    0    0 -1.2048200065e+01 +9.9005249216e+00 +2.5900857746e+01 3.0285172602e+01 1.7770000000e+00 0.0000e+00 -1.0000e+00
       22  1    3    3    0    0 -2.7632121044e+00 -6.9545047790e+00 +2.6167190269e+02 2.6177888596e+02 0.0000000000e+00 0.0000e+00 -1.0000e+00
<mgrwt>
<rscale>  2 0.12500000E+03</rscale>
<asrwt>0</asrwt>
<pdfrwt beam="1">  1       21 0.43393659E-01 0.12500000E+03</pdfrwt>
<pdfrwt beam="2">  1       21 0.19467758E-02 0.12500000E+03</pdfrwt>
<totfact> 0.63004185E+06</totfact>
</mgrwt>
</event>
<event>
 6      0 +9.8758382e+01 1.25000000e+02 7.54677100e-03 1.12640300e-01
       21 -1    0    0  502  501 +0.0000000000e+00 +0.0000000000e+00 +1.4670005174e+02 1.4670005174e+02 0.0000000000e+00 0.0000e+00 -1.0000e+00
       21 -1    0    0  501  502 -0.0000000000e+00 -0.0000000000e+00 -2.6627461638e+01 2.6627461638e+01 0.0000000000e+00 0.0000e+00 -1.0000e+00
       25  2    1    2    0    0 +0.0000000000e+00 +0.0000000000e+00 +1.2007259010e+02 1.7332751338e+02 1.2500000000e+02 0.0000e+00 0.0000e+00
      -15  1    3    3    0    0 +8.5386706756e+00 -4.5473449710e+01 +3.5655034761e+01 5.8439565007e+01 1.7770000000e+00 0.0000e+00 -1.0000e+00
       15  1    3    3    0    0 -1.8292537375e+01 -1.0292646286e+01 +2.7122563413e+01 3.4341617118e+01 1.7770000000e+00 0.0000e+00 -1.0000e+00
       22  1    3    3    0    0 +9.7538666993e+00 +5.5766095996e+01 +5.7294991922e+01 8.0546331249e+01 0.0000000000e+00 0.0000e+00 -1.0000e+00
<mgrwt>
<rscale>  2 0.12500000E+03</rscale>
<asrwt>0</asrwt>
<pdfrwt beam="1">  1       21 0.21573537E-01 0.12500000E+03</pdfrwt>
<pdfrwt beam="2">  1       21 0.39158033E-02 0.12500000E+03</pdfrwt>
<totfact> 0.80839447E+06</totfact>
</mgrwt>
</event>
<event>
 6      0 +9.8758382e+01 1.25000000e+02 7.54677100e-03 1.12640300e-01
       21 -1    0    0  502  501 +0.0000000000e+00 +0.0000000000e+00 +3.8282783016e+02 3.8282783016e+02 0.0000000000e+00 0.0000e+00 1.0000e+00
       21 -1    0    0  501  502 -0.0000000000e+00 -0.0000000000e+00 -1.0203673015e+01 1.0203673015e+01 0.0000000000e+00 0.0000e+00 1.0000e+00
       25  2    1    2    0    0 +0.0000000000e+00 +0.0000000000e+00 +3.7262415714e+02 3.9303150317e+02 1.2500000000e+02 0.0000e+00 0.0000e+00
      -15  1    3    3    0    0 +2.2817239683e+01 +1.0570860450e+01 +1.9180447621e+02 1.9345408846e+02 1.7770000000e+00 0.0000e+00 -1.0000e+00
       15  1    3    3    0    0 -4.6197627475e-02 -4.1223994009e+01 +1.2738349354e+02 1.3389970864e+02 1.7770000000e+00 0.0000e+00 -1.0000e+00
       22  1    3    3    0    0 -2.2771042056e+01 +3.0653133559e+01 +5.3436187388e+01 6.5677706080e+01 0.0000000000e+00 0.0000e+00 -1.0000e+00
<mgrwt>
<rscale>  2 0.12500000E+03</rscale>
<asrwt>0</asrwt>
<pdfrwt beam="1">  1       21 0.56298201E-01 0.12500000E+03</pdfrwt>
<pdfrwt beam="2">  1       21 0.15005404E-02 0.12500000E+03</pdfrwt>
<totfact> 0.54304545E+06</totfact>
</mgrwt>
</event>
<event>
 6      0 +9.8758382e+01 1.25000000e+02 7.54677100e-03 1.12640300e-01
       21 -1    0    0  502  501 +0.0000000000e+00 +0.0000000000e+00 +1.7125073379e+02 1.7125073379e+02 0.0000000000e+00 0.0000e+00 1.0000e+00
       21 -1    0    0  501  502 -0.0000000000e+00 -0.0000000000e+00 -2.2810121239e+01 2.2810121239e+01 0.0000000000e+00 0.0000e+00 1.0000e+00
       25  2    1    2    0    0 +0.0000000000e+00 +0.0000000000e+00 +1.4844061255e+02 1.9406085503e+02 1.2500000000e+02 0.0000e+00 0.0000e+00
      -15  1    3    3    0    0 -2.6212082286e+01 -1.7375130808e+00 +7.4487705338e+01 7.9004228906e+01 1.7770000000e+00 0.0000e+00 -1.0000e+00
       15  1    3    3    0    0 +4.0408728147e+01 -3.0676998013e+00 +8.6481413607e+01 9.5522084990e+01 1.7770000000e+00 0.0000e+00 -1.0000e+00
       22  1    3    3    0    0 -1.4196645861e+01 +4.8052128822e+00 -1.2528506398e+01 1.9534541129e+01 0.0000000000e+00 0.0000e+00 -1.0000e+00
<mgrwt>
<rscale>  2 0.12500000E+03</rscale>
<asrwt>0</asrwt>
<pdfrwt beam="1">  1       21 0.25183931E-01 0.12500000E+03</pdfrwt>
<pdfrwt beam="2">  1       21 0.33544297E-02 0.12500000E+03</pdfrwt>
<totfact> 0.77693690E+06</totfact>
</mgrwt>
</event>
<event>
 6      0 +9.8758382e+01 1.25000000e+02 7.54677100e-03 1.12640300e-01
       21 -1    0    0  502  501 +0.0000000000e+00 +0.0000000000e+00 +2.3158579021e+02 2.3158579021e+02 0.0000000000e+00 0.0000e+00 -1.0000e+00
       21 -1    0    0  501  502 -0.0000000000e+00 -0.0000000000e+00 -1.6867399319e+01 1.6867399319e+01 0.0000000000e+00 0.0000e+00 -1.0000e+00
       25  2    1    2    0    0 +0.0000000000e+00 +0.0000000000e+00 +2.1471839089e+02 2.4845318952e+02 1.2500000000e+02 0.0000e+00 0.0000e+00
      -15  1    3    3    0    0 +9.2911755592e+00 +2.4280097414e+01 +9.1999907980e+00 2.7634157005e+01 1.7770000000e+00 0.0000e+00 -1.0000e+00
       15  1    3    3    0    0 -3.7483518951e+01 -8.3250080108e-01 +6.0177993901e+01 7.0924297173e+01 1.7770000000e+00 0.0000e+00 -1.0000e+00
       22  1    3    3    0    0 +2.8192343392e+01 -2.3447596613e+01 +1.4534040622e+02 1.4989473537e+02 0.0000000000e+00 0.0000e+00 -1.0000e+00
<mgrwt>
<rscale>  2 0.12500000E+03</rscale>
<asrwt>0</asrwt>
<pdfrwt beam="1">  1       21 0.34056732E-01 0.12500000E+03</pdfrwt>
<pdfrwt beam="2">  1       21 0.24805000E-02 0.12500000E+03</pdfrwt>
<totfact> 0.70202417E+06</totfact>
</mgrwt>
</event>
<event>
 6      0 +9.8758382e+01 1.25000000e+02 7.54677100e-03 1.12640300e-01
       21 -1    0    0  502  501 +0.0000000000e+00 +0.0000000000e+00 +9.0895541768e+00 9.0895541768e+00 0.0000000000e+00 0.0000e+00 1.0000e+00
       21 -1    0    0  501  502 -0.0000000000e+00 -0.0000000000e+00 -4.2975155041e+02 4.2975155041e+02 0.0000000000e+00 0.0000e+00 1.0000e+00
       25  2    1    2    0    0 +0.0000000000e+00 +0.0000000000e+00 -4.2066199623e+02 4.3884110458e+02 1.2500000000e+02 0.0000e+00 0.0000e+00
      -15  1    3    3    0    0 +5.0326556723e+01 -7.8309892877e+00 -3.1069776490e+02 3.1484971899e+02 1.7770000000e+00 0.0000e+00 -1.0000e+00
       15  1    3    3    0    0 -4.3415224912e+00 +1.0161601164e+01 -1.9502607053e+01 2.2485914849e+01 1.7770000000e+00 0.0000e+00 -1.0000e+00
       22  1    3    3    0    0 -4.5985034231e+01 -2.3306118760e+00 -9.0461624325e+01 1.0150547079e+02 0.0000000000e+00 0.0000e+00 -1.0000e+00
<mgrwt>
<rscale>  2 0.12500000E+03</rscale>
<asrwt>0</asrwt>
<pdfrwt beam="1">  1       21 0.13366991E-02 0.12500000E+03</pdfrwt>
<pdfrwt beam="2">  1       21 0.63198758E-01 0.12500000E+03</pdfrwt>
<totfact> 0.50213775E+06</totfact>
</mgrwt>
</event>
<event>
 6      0 +9.8758382e+01 1.25000000e+02 7.54677100e-03 1.12640300e-01
       21 -1    0    0  502  501 +0.0000000000e+00 +0.0000000000e+00 +3.1393265276e+01 3.1393265276e+01 0.0000000000e+00 0.0000e+00 1.0000e+00
       21 -1    0    0  501  502 -0.0000000000e+00 -0.0000000000e+00 -1.2442955410e+02 1.2442955410e+02 0.0000000000e+00 0.0000e+00 1.0000e+00
       25  2    1    2    0    0 +0.0000000000e+00 +0.0000000000e+00 -9.3036288823e+01 1.5582281937e+02 1.2500000000e+02 0.0000e+00 0.0000e+00
      -15  1    3    3    0    0 +2.8267356742e+01 +1.5554589518e+01 -6.1150369244e+00 3.2886777249e+01 1.7770000000e+00 0.0000e+00 -1.0000e+00
       15  1    3    3    0    0 +2.3045064551e+01 +1.8668170675e+00 -5.5845940077e+01 6.0468890830e+01 1.7770000000e+00 0.0000e+00 -1.0000e+00
       22  1    3    3    0    0 -5.1312421293e+01 -1.7421406585e+01 -3.1075311828e+01 6.2467151299e+01 0.0000000000e+00 0.0000e+00 -1.0000e+00
<mgrwt>
<rscale>  2 0.12500000E+03</rscale>
<asrwt>0</asrwt>
<pdfrwt beam="1">  1       21 0.46166567E-02 0.12500000E+03</pdfrwt>
<pdfrwt beam="2">  1       21 0.18298464E-01 0.12500000E+03</pdfrwt>
<totfact> 0.83660338E+06</totfact>
</mgrwt>
</event>
<event>
 6      0 +9.8758382e+01 1.25000000e+02 7.54677100e-03 1.12640300e-01
       21 -1    0    0  502  501 +0.0000000000e+00 +0.0000000000e+00 +8.8590100912e+00 8.8590100912e+00 0.0000000000e+00 0.0000e+00 1.0000e+00
       21 -1    0    0  501  502 -0.0000000000e+00 -0.0000000000e+00 -4.4093526927e+02 4.4093526927e+02 0.0000000000e+00 0.0000e+00 1.0000e+00
       25  2    1    2    0    0 +0.0000000000e+00 +0.0000000000e+00 -4.3207625918e+02 4.4979427936e+02 1.2500000000e+02 0.0000e+00 0.0000e+00
      -15  1    3    3    0    0 -1.0400697783e+01 +2.4002719122e+01 -6.1759640171e+01 6.7094827838e+01 1.7770000000e+00 0.0000e+00 -1.0000e+00
       15  1    3    3    0    0 +2.7551234923e+01 -5.4740701103e+01 -2.2894701840e+02 2.3701373350e+02 1.7770000000e+00 0.0000e+00 -1.0000e+00
       22  1    3    3    0    0 -1.7150537141e+01 +3.0737981981e+01 -1.4136960063e+02 1.4568571805e+02 0.0000000000e+00 0.0000e+00 -1.0000e+00
<mgrwt>
<rscale>  2 0.12500000E+03</rscale>
<asrwt>0</asrwt>
<pdfrwt beam="1">  1       21 0.13027955E-02 0.12500000E+03</pdfrwt>
<pdfrwt beam="2">  1       21 0.64843429E-01 0.12500000E+03</pdfrwt>
<totfact> 0.49292632E+06</totfact>
</mgrwt>
</event>
<event>
 6      0 +9.8758382e+01 1.25000000e+02 7.54677100e-03 1.12640300e-01
       21 -1    0    0  502  501 +0.0000000000e+00 +0.0000000000e+00 +3.8792804961e+01 3.8792804961e+01 0.0000000000e+00 0.0000e+00 1.0000e+00
       21 -1    0    0  501  502 -0.0000000000e+00 -0.0000000000e+00 -1.0069521923e+02 1.0069521923e+02 0.0000000000e+00 0.0000e+00 1.0000e+00
       25  2    1    2    0    0 +0.0000000000e+00 +0.0000000000e+00 -6.1902414268e+01 1.3948802419e+02 1.2500000000e+02 0.0000e+00 0.0000e+00
      -15  1    3    3    0    0 +5.4547373891e+00 -4.3239249257e+01 -2.1959656079e+01 4.8834117791e+01 1.7770000000e+00 0.0000e+00 -1.0000e+00
       15  1    3    3    0    0 -1.2596533395e+01 +5.9135952596e+01 -4.1191119472e+01 7.3181962227e+01 1.7770000000e+00 0.0000e+00 -1.0000e+00
       22  1    3    3    0    0 +7.1417960056e+00 -1.5896703339e+01 +1.2483612830e+00 1.7471944171e+01 0.0000000000e+00 0.0000e+00 -1.0000e+00
<mgrwt>
<rscale>  2 0.12500000E+03</rscale>
<asrwt>0</asrwt>
<pdfrwt beam="1">  1       21 0.57048243E-02 0.12500000E+03</pdfrwt>
<pdfrwt beam="2">  1       21 0.14808120E-01 0.12500000E+03</pdfrwt>
<totfact> 0.86428778E+06</totfact>
</mgrwt>
</event>
<event>
 6      0 +9.8758382e+01 1.25000000e+02 7.54677100e-03 1.12640300e-01
       21 -1    0    0  502  501 +0.0000000000e+00 +0.0000000000e+00 +4.2041676419e+00 4.2041676419e+00 0.0000000000e+00 0.0000e+00 1.0000e+00
       21 -1    0    0  501  502 -0.0000000000e+00 -0.0000000000e+00 -9.2913754463e+02 9.2913754463e+02 0.0000000000e+00 0.0000e+00 1.0000e+00
       25  2    1    2    0    0 +0.0000000000e+00 +0.0000000000e+00 -9.2493337698e+02 9.3334171227e+02 1.2500000000e+02 0.0000e+00 0.0000e+00
      -15  1    3    3    0    0 +6.0222817502e+00 -2.8890915053e+00 -1.0991244116e+02 1.1012954725e+02 1.7770000000e+00 0.0000e+00 -1.0000e+00
       15  1    3    3    0    0 +2.9491154859e+01 -3.0241460925e+01 -6.4517116683e+02 6.4655492142e+02 1.7770000000e+00 0.0000e+00 -1.0000e+00
       22  1    3    3    0    0 -3.5513436610e+01 +3.3130552431e+01 -1.6984976865e+02 1.7665724326e+02 0.0000000000e+00 0.0000e+00 -1.0000e+00
<mgrwt>
<rscale>  2 0.12500000E+03</rscale>
<asrwt>0</asrwt>
<pdfrwt beam="1">  1       21 0.61825864E-03 0.12500000E+03</pdfrwt>
<pdfrwt beam="2">  1       21 0.13663816E+00 0.12500000E+03</pdfrwt>
<totfact> 0.23285958E+06</totfact>
</mgrwt>
</event>
<event>
 6      0 +9.8758382e+01 1.25000000e+02 7.54677100e-03 1.12640300e-01
       21 -1    0    0  502  501 +0.0000000000e+00 +0.0000000000e+00 +8.0905476829e+02 8.0905476829e+02 0.0000000000e+00 0.0000e+00 1.0000e+00
       21 -1    0    0  501  502 -0.0000000000e+00 -0.0000000000e+00 -4.8281651046e+00 4.8281651046e+00 0.0000000000e+00 0.0000e+00 1.0000e+00
       25  2    1    2    0    0 +0.0000000000e+00 +0.0000000000e+00 +8.0422660319e+02 8.1388293340e+02 1.2500000000e+02 0.0000e+00 0.0000e+00
      -15  1    3    3    0    0 -1.2219123608e+01 +2.4181729755e+01 +5.2454628367e+02 5.2524853591e+02 1.7770000000e+00 0.0000e+00 -1.0000e+00
       15  1    3    3    0    0 +2.0319776126e+01 -6.3372164790e+00 +2.5994830947e+02 2.6082433732e+02 1.7770000000e+00 0.0000e+00 -1.0000e+00
       22  1    3    3    0    0 -8.1006525182e+00 -1.7844513276e+01 +1.9732010019e+01 2.7810060135e+01 0.0000000000e+00 0.0000e+00 -1.0000e+00
<mgrwt>
<rscale>  2 0.12500000E+03</rscale>
<asrwt>0</asrwt>
<pdfrwt beam="1">  1       21 0.11897855E+00 0.12500000E+03</pdfrwt>
<pdfrwt beam="2">  1       21 0.71002484E-03 0.12500000E+03</pdfrwt>
<totfact> 0.27709270E+06</totfact>
</mgrwt>
</event>
<event>
 6      0 +9.8758382e+01 1.25000000e+02 7.54677100e-03 1.12640300e-01
       21 -1    0    0  502  501 +0.0000000000e+00 +0.0000000000e+00 +6.7985263425e+01 6.7985263425e+01 0.0000000000e+00 0.0000e+00 1.0000e+00
       21 -1    0    0  501  502 -0.0000000000e+00 -0.0000000000e+00 -5.7457304763e+01 5.7457304763e+01 0.0000000000e+00 0.0000e+00 1.0000e+00
       25  2    1    2    0    0 +0.0000000000e+00 +0.0000000000e+00 +1.0527958661e+01 1.2544256819e+02 1.2500000000e+02 0.0000e+00 0.0000e+00
      -15  1    3    3    0    0 -1.4019431632e+01 -2.1437366231e+01 -1.4616057942e+01 2.9544745945e+01 1.7770000000e+00 0.0000e+00 -1.0000e+00
       15  1    3    3    0    0 -2.8214526379e+01 +3.4770989316e+01 -3.1215295169e-01 4.4814466028e+01 1.7770000000e+00 0.0000e+00 -1.0000e+00
       22  1    3    3    0    0 +4.2233958011e+01 -1.3333623085e+01 +2.5456169554e+01 5.1083356216e+01 0.0000000000e+00 0.0000e+00 -1.0000e+00
<mgrwt>
<rscale>  2 0.12500000E+03</rscale>
<asrwt>0</asrwt>
<pdfrwt beam="1">  1       21 0.99978329E-02 0.12500000E+03</pdfrwt>
<pdfrwt beam="2">  1       21 0.84496036E-02 0.12500000E+03</pdfrwt>
<totfact> 0.88914201E+06</totfact>
</mgrwt>
</event>
<event>
 6      0 +9.8758382e+01 1.25000000e+02 7.54677100e-03 1.12640300e-01
       21 -1    0    0  502  501 +0.0000000000e+00 +0.0000000000e+00 +1.8060193217e+02 1.8060193217e+02 0.0000000000e+00 0.0000e+00 1.0000e+00
       21 -1    0    0  501  502 -0.0000000000e+00 -0.0000000000e+00 -2.1629059851e+01 2.1629059851e+01 0.0000000000e+00 0.0000e+00 1.0000e+00
       25  2    1    2    0    0 +0.0000000000e+00 +0.0000000000e+00 +1.5897287232e+02 2.0223099202e+02 1.2500000000e+02 0.0000e+00 0.0000e+00
      -15  1    3    3    0    0 +1.5852061735e+00 +1.3891505245e+01 +1.5798606097e+01 2.1171690537e+01 1.7770000000e+00 0.0000e+00 -1.0000e+00
       15  1    3    3    0    0 -3.1092789855e+01 -5.1268465008e+01 +5.7800003134e+01 8.3301951817e+01 1.7770000000e+00 0.0000e+00 -1.0000e+00
       22  1    3    3    0    0 +2.9507583681e+01 +3.7376959763e+01 +8.5374263089e+01 9.7757349666e+01 0.0000000000e+00 0.0000e+00 -1.0000e+00
<mgrwt>
<rscale>  2 0.12500000E+03</rscale>
<asrwt>0</asrwt>
<pdfrwt beam="1">  1       21 0.26559107E-01 0.12500000E+03</pdfrwt>
<pdfrwt beam="2">  1       21 0.31807442E-02 0.12500000E+03</pdfrwt>
<totfact> 0.76494620E+06</totfact>
</mgrwt>
</event>
<event>
 6      0 +9.8758382e+01 1.25000000e+02 7.54677100e-03 1.12640300e-01
       21 -1    0    0  502  501 +0.0000000000e+00 +0.0000000000e+00 +4.8940548207e+01 4.8940548207e+01 0.0000000000e+00 0.0000e+00 1.0000e+00
       21 -1    0    0  501  502 -0.0000000000e+00 -0.0000000000e+00 -7.9816228937e+01 7.9816228937e+01 0.0000000000e+00 0.0000e+00 1.0000e+00
       25  2    1    2    0    0 +0.0000000000e+00 +0.0000000000e+00 -3.0875680729e+01 1.2875677714e+02 1.2500000000e+02 0.0000e+00 0.0000e+00
      -15  1    3    3    0    0 -5.8765891561e+00 +4.0395693959e+00 +2.6968888939e+01 2.7952300811e+01 1.7770000000e+00 0.0000e+00 -1.0000e+00
       15  1    3    3    0    0 +2.2927329762e+01 -3.1181329482e+01 -5.0917110105e+00 3.9077116172e+01 1.7770000000e+00 0.0000e+00 -1.0000e+00
       22  1    3    3    0    0 -1.7050740606e+01 +2.7141760086e+01 -5.2752858658e+01 6.1727360161e+01 0.0000000000e+00 0.0000e+00 -1.0000e+00
<mgrwt>
<rscale>  2 0.12500000E+03</rscale>
<asrwt>0</asrwt>
<pdfrwt beam="1">  1       21 0.71971394E-02 0.12500000E+03</pdfrwt>
<pdfrwt beam="2">  1       21 0.11737681E-01 0.12500000E+03</pdfrwt>
<totfact> 0.88323027E+06</totfact>
</mgrwt>
</event>
<event>
 6      0 +9.8758382e+01 1.25000000e+02 7.54677100e-03 1.12640300e-01
       21 -1    0    0  502  501 +0.0000000000e+00 +0.0000000000e+00 +9.6365307541e+01 9.6365307541e+01 0.0000000000e+00 0.0000e+00 -1.0000e+00
       21 -1    0    0  501  502 -0.0000000000e+00 -0.0000000000e+00 -4.0535853614e+01 4.0535853614e+01 0.0000000000e+00 0.0000e+00 -1.0000e+00
       25  2    1    2    0    0 +0.0000000000e+00 +0.0000000000e+00 +5.5829453927e+01 1.3690116116e+02 1.2500000000e+02 0.0000e+00 0.0000e+00
      -15  1    3    3    0    0 -2.4023522149e+01 +1.2406219594e+01 -8.0313522015e+00 2.8261356093e+01 1.7770000000e+00 0.0000e+00 -1.0000e+00
       15  1    3    3    0    0 -1.0974139146e+01 -3.1010633299e+01 -6.2281320806e-01 3.2949002002e+01 1.7770000000e+00 0.0000e+00 -1.0000e+00
       22  1    3    3    0    0 +3.4997661295e+01 +1.8604413705e+01 +6.4483619334e+01 7.5690803060e+01 0.0000000000e+00 0.0000e+00 -1.0000e+00
<mgrwt>
<rscale>  2 0.12500000E+03</rscale>
<asrwt>0</asrwt>
<pdfrwt beam="1">  1       21 0.14171369E-01 0.12500000E+03</pdfrwt>
<pdfrwt beam="2">  1       21 0.59611549E-02 0.12500000E+03</pdfrwt>
<totfact> 0.86875119E+06</totfact>
</mgrwt>
</event>
<event>
 6      0 +9.8758382e+01 1.25000000e+02 7.54677100e-03 1.12640300e-01
       21 -1    0    0  502  501 +0.0000000000e+00 +0.0000000000e+00 +1.3013694843e+02 1.3013694843e+02 0.0000000000e+00 0.0000e+00 -1.0000e+00
       21 -1    0    0  501  502 -0.0000000000e+00 -0.0000000000e+00 -3.0016456103e+01 3.0016456103e+01 0.0000000000e+00 0.0000e+00 -1.0000e+00
       25  2    1    2    0    0 +0.0000000000e+00 +0.0000000000e+00 +1.0012049233e+02 1.6015340454e+02 1.2500000000e+02 0.0000e+00 0.0000e+00
      -15  1    3    3    0    0 +3.7328092765e+00 +1.7832648903e+01 +4.4628758430e+01 4.8237133414e+01 1.7770000000e+00 0.0000e+00 -1.0000e+00
       15  1    3    3    0    0 +3.4141589208e+01 +1.7453782061e+01 +3.4928149364e+00 3.8544002219e+01 1.7770000000e+00 0.0000e+00 -1.0000e+00
       22  1    3    3    0    0 -3.7874398484e+01 -3.5286430964e+01 +5.1998918960e+01 7.3372268901e+01 0.0000000000e+00 0.0000e+00 -1.0000e+00
<mgrwt>
<rscale>  2 0.12500000E+03</rscale>
<asrwt>0</asrwt>
<pdfrwt beam="1">  1       21 0.19137786E-01 0.12500000E+03</pdfrwt>
<pdfrwt beam="2">  1       21 0.44141848E-02 0.12500000E+03</pdfrwt>
<totfact> 0.82953688E+06</totfact>
</mgrwt>
</event>
<event>
 6      0 +9.8758382e+01 1.25000000e+02 7.54677100e-03 1.12640300e-01
       21 -1    0    0  502  501 +0.0000000000e+00 +0.0000000000e+00 +4.9620099590e+01 4.9620099590e+01 0.0000000000e+00 0.0000e+00 1.0000e+00
       21 -1    0    0  501  502 -0.0000000000e+00 -0.0000000000e+00 -7.8723139056e+01 7.8723139056e+01 0.0000000000e+00 0.0000e+00 1.0000e+00
       25  2    1    2    0    0 +0.0000000000e+00 +0.0000000000e+00 -2.9103039466e+01 1.2834323865e+02 1.2500000000e+02 0.0000e+00 0.0000e+00
      -15  1    3    3    0    0 +4.9233665298e+00 +3.2395596943e+01 -4.6847253705e+01 5.7197352630e+01 1.7770000000e+00 0.0000e+00 -1.0000e+00
       15  1    3    3    0    0 -2.2757360024e+01 -1.1787974867e+01 +3.1475559901e+01 4.0629083017e+01 1.7770000000e+00 0.0000e+00 -1.0000e+00
       22  1    3    3    0    0 +1.7833993494e+01 -2.0607622075e+01 -1.3731345661e+01 3.0516802998e+01 0.0000000000e+00 0.0000e+00 -1.0000e+00
<mgrwt>
<rscale>  2 0.12500000E+03</rscale>
<asrwt>0</asrwt>
<pdfrwt beam="1">  1       21 0.72970735E-02 0.12500000E+03</pdfrwt>
<pdfrwt beam="2">  1       21 0.11576932E-01 0.12500000E+03</pdfrwt>
<totfact> 0.88396882E+06</totfact>
</mgrwt>
</event>
<event>
 6      0 +9.8758382e+01 1.25000000e+02 7.54677100e-03 1.12640300e-01
       21 -1    0    0  502  501 +0.0000000000e+00 +0.0000000000e+00 +2.9565500088e+02 2.9565500088e+02 0.0000000000e+00 0.0000e+00 -1.0000e+00
       21 -1    0    0  501  502 -0.0000000000e+00 -0.0000000000e+00 -1.3212189844e+01 1.3212189844e+01 0.0000000000e+00 0.0000e+00 -1.0000e+00
       25  2    1    2    0    0 +0.0000000000e+00 +0.0000000000e+00 +2.8244281103e+02 3.0886719072e+02 1.2500000000e+02 0.0000e+00 0.0000e+00
      -15  1    3    3    0    0 -1.5398811076e+01 +1.6899462802e+01 +2.1797505926e+02 2.1917800850e+02 1.7770000000e+00 0.0000e+00 -1.0000e+00
       15  1    3    3    0    0 -3.4203304829e+00 -8.4539627959e+00 +6.8111681794e+01 6.8742469212e+01 1.7770000000e+00 0.0000e+00 -1.0000e+00
       22  1    3    3    0    0 +1.8819141559e+01 -8.4455000066e+00 -3.6439300240e+00 2.0946712998e+01 0.0000000000e+00 0.0000e+00 -1.0000e+00
<mgrwt>
<rscale>  2 0.12500000E+03</rscale>
<asrwt>0</asrwt>
<pdfrwt beam="1">  1       21 0.43478673E-01 0.12500000E+03</pdfrwt>
<pdfrwt beam="2">  1       21 0.19429693E-02 0.12500000E+03</pdfrwt>
<totfact> 0.62942033E+06</totfact>
</mgrwt>
</event>
<event>
 6      0 +9.8758382e+01 1.25000000e+02 7.54677100e-03 1.12640300e-01
       21 -1    0    0  502  501 +0.0000000000e+00 +0.0000000000e+00 +2.0434579637e+01 2.0434579637e+01 0.0000000000e+00 0.0000e+00 -1.0000e+00
       21 -1    0    0  501  502 -0.0000000000e+00 -0.0000000000e+00 -1.9115881361e+02 1.9115881361e+02 0.0000000000e+00 0.0000e+00 -1.0000e+00
       25  2    1    2    0    0 +0.0000000000e+00 +0.0000000000e+00 -1.7072423397e+02 2.1159339325e+02 1.2500000000e+02 0.0000e+00 0.0000e+00
      -15  1    3    3    0    0 +2.3662218788e+01 -1.1219908703e+01 -8.7542794274e+00 2.7669154064e+01 1.7770000000e+00 0.0000e+00 -1.0000e+00
       15  1    3    3    0    0 +2.3331364987e+00 +2.0445407560e+01 -1.0757703216e+00 2.0682679396e+01 1.7770000000e+00 0.0000e+00 -1.0000e+00
       22  1    3    3    0    0 -2.5995355287e+01 -9.2254988567e+00 -1.6089418421e+02 1.6324155977e+02 0.0000000000e+00 0.0000e+00 -1.0000e+00
<mgrwt>
<rscale>  2 0.12500000E+03</rscale>
<asrwt>0</asrwt>
<pdfrwt beam="1">  1       21 0.30050854E-02 0.12500000E+03</pdfrwt>
<pdfrwt beam="2">  1       21 0.28111589E-01 0.12500000E+03</pdfrwt>
<totfact> 0.75159963E+06</totfact>
</mgrwt>
</event>
<event>
 6      0 +9.8758382e+01 1.25000000e+02 7.54677100e-03 1.12640300e-01
       21 -1    0    0  502  501 +0.0000000000e+00 +0.0000000000e+00 +4.6290820681e+01 4.6290820681e+01 0.0000000000e+00 0.0000e+00 1.0000e+00
       21 -1    0    0  501  502 -0.0000000000e+00 -0.0000000000e+00 -8.4384980488e+01 8.4384980488e+01 0.0000000000e+00 0.0000e+00 1.0000e+00
       25  2    1    2    0    0 +0.0000000000e+00 +0.0000000000e+00 -3.8094159807e+01 1.3067580117e+02 1.2500000000e+02 0.0000e+00 0.0000e+00
      -15  1    3    3    0    0 +2.1730804332e+01 -1.4751465125e+01 +3.1064951992e+00 2.6507388058e+01 1.7770000000e+00 0.0000e+00 -1.0000e+00
       15  1    3    3    0    0 -4.2422488985e+01 +3.3866302871e+01 -6.4619437910e-02 5.4311655715e+01 1.7770000000e+00 0.0000e+00 -1.0000e+00
       22  1    3    3    0    0 +2.0691684653e+01 -1.9114837746e+01 -4.1136035569e+01 4.9856757397e+01 0.0000000000e+00 0.0000e+00 -1.0000e+00
<mgrwt>
<rscale>  2 0.12500000E+03</rscale>
<asrwt>0</asrwt>
<pdfrwt beam="1">  1       21 0.68074737E-02 0.12500000E+03</pdfrwt>
<pdfrwt beam="2">  1       21 0.12409556E-01 0.12500000E+03</pdfrwt>
<totfact> 0.87974815E+06</totfact>
</mgrwt>
</event>
<event>
 6      0 +9.8758382e+01 1.25000000e+02 7.54677100e-03 1.12640300e-01
       21 -1    0    0  502  501 +0.0000000000e+00 +0.0000000000e+00 +3.8606977079e+02 3.8606977079e+02 0.0000000000e+00 0.0000e+00 1.0000e+00
       21 -1    0    0  501  502 -0.0000000000e+00 -0.0000000000e+00 -1.0117989792e+01 1.0117989792e+01 0.0000000000e+00 0.0000e+00 1.0000e+00
       25  2    1    2    0    0 +0.0000000000e+00 +0.0000000000e+00 +3.7595178100e+02 3.9618776059e+02 1.2500000000e+02 0.0000e+00 0.0000e+00
      -15  1    3    3    0    0 +3.4224999400e+01 +3.4115075334e+00 +7.0564140541e+01 7.8520345306e+01 1.7770000000e+00 0.0000e+00 -1.0000e+00
       15  1    3    3    0    0 -2.3104329881e+01 -4.1470092614e+01 +1.7976384144e+02 1.8593486779e+02 1.7770000000e+00 0.0000e+00 -1.0000e+00
       22  1    3    3    0    0 -1.1120669520e+01 +3.8058585081e+01 +1.2562379896e+02 1.3173254744e+02 0.0000000000e+00 0.0000e+00 -1.0000e+00
<mgrwt>
<rscale>  2 0.12500000E+03</rscale>
<asrwt>0</asrwt>
<pdfrwt beam="1">  1       21 0.56774957E-01 0.12500000E+03</pdfrwt>
<pdfrwt beam="2">  1       21 0.14879399E-02 0.12500000E+03</pdfrwt>
<totfact> 0.54009532E+06</totfact>
</mgrwt>
</event>
<event>
 6      0 +9.8758382e+01 1.25000000e+02 7.54677100e-03 1.12640300e-01
       21 -1    0    0  502  501 +0.0000000000e+00 +0.0000000000e+00 +1.2288995124e+01 1.2288995124e+01 0.0000000000e+00 0.0000e+00 -1.0000e+00
       21 -1    0    0  501  502 -0.0000000000e+00 -0.0000000000e+00 -3.1786569696e+02 3.1786569696e+02 0.0000000000e+00 0.0000e+00 -1.0000e+00
       25  2    1    2    0    0 +0.0000000000e+00 +0.0000000000e+00 -3.0557670184e+02 3.3015469208e+02 1.2500000000e+02 0.0000e+00 0.0000e+00
      -15  1    3    3    0    0 -3.8084066941e+01 +1.3223609753e+01 -1.0819384199e+02 1.1547434859e+02 1.7770000000e+00 0.0000e+00 -1.0000e+00
       15  1    3    3    0    0 +6.2248763289e+00 -4.1383449802e+01 -9.5713988095e+01 1.0447805630e+02 1.7770000000e+00 0.0000e+00 -1.0000e+00
       22  1    3    3    0    0 +3.1859190613e+01 +2.8159840049e+01 -1.0166887181e+02 1.1020228724e+02 0.0000000000e+00 0.0000e+00 -1.0000e+00
<mgrwt>
<rscale>  2 0.12500000E+03</rscale>
<asrwt>0</asrwt>
<pdfrwt beam="1">  1       21 0.18072050E-02 0.12500000E+03</pdfrwt>
<pdfrwt beam="2">  1       21 0.46744960E-01 0.12500000E+03</pdfrwt>
<totfact> 0.60606697E+06</totfact>
</mgrwt>
</event>
<event>
 6      0 +9.8758382e+01 1.25000000e+02 7.54677100e-03 1.12640300e-01
       21 -1    0    0  502  501 +0.0000000000e+00 +0.0000000000e+00 +5.0649145369e+01 5.0649145369e+01 0.0000000000e+00 0.0000e+00 -1.0000e+00
       21 -1    0    0  501  502 -0.0000000000e+00 -0.0000000000e+00 -7.7123710016e+01 7.7123710016e+01 0.0000000000e+00 0.0000e+00 -1.0000e+00
       25  2    1    2    0    0 +0.0000000000e+00 +0.0000000000e+00 -2.6474564647e+01 1.2777285538e+02 1.2500000000e+02 0.0000e+00 0.0000e+00
      -15  1    3    3    0    0 +2.6155537756e+01 -1.5035153897e+01 -7.5724461645e-01 3.0230765066e+01 1.7770000000e+00 0.0000e+00 -1.0000e+00
       15  1    3    3    0    0 +8.1839243134e-01 +3.1095764991e+01 +2.3596172626e+01 3.9083928386e+01 1.7770000000e+00 0.0000e+00 -1.0000e+00
       22  1    3    3    0    0 -2.6973930188e+01 -1.6060611094e+01 -4.9313492657e+01 5.8458161933e+01 0.0000000000e+00 0.0000e+00 -1.0000e+00
<mgrwt>
<rscale>  2 0.12500000E+03</rscale>
<asrwt>0</asrwt>
<pdfrwt beam="1">  1       21 0.74484038E-02 0.12500000E+03</pdfrwt>
<pdfrwt beam="2">  1       21 0.11341722E-01 0.12500000E+03</pdfrwt>
<totfact> 0.88497623E+06</totfact>
</mgrwt>
</event>
<event>
 6      0 +9.8758382e+01 1.25000000e+02 7.54677100e-03 1.12640300e-01
       21 -1    0    0  502  501 +0.0000000000e+00 +0.0000000000e+00 +2.5080422233e+02 2.5080422233e+02 0.0000000000e+00 0.0000e+00 1.0000e+00
       21 -1    0    0  501  502 -0.0000000000e+00 -0.0000000000e+00 -1.5574897279e+01 1.5574897279e+01 0.0000000000e+00 0.0000e+00 1.0000e+00
       25  2    1    2    0    0 +0.0000000000e+00 +0.0000000000e+00 +2.3522932505e+02 2.6637911961e+02 1.2500000000e+02 0.0000e+00 0.0000e+00
      -15  1    3    3    0    0 -1.2850238836e+01 +2.1137714288e+01 +2.8359456147e+01 3.7674236361e+01 1.7770000000e+00 0.0000e+00 -1.0000e+00
       15  1    3    3    0    0 +9.7571080535e-02 -1.7885913485e+01 -3.1712569430e+00 1.8251849793e+01 1.7770000000e+00 0.0000e+00 -1.0000e+00
       22  1    3    3    0    0 +1.2752667756e+01 -3.2518008026e+00 +2.1004112584e+02 2.1045303345e+02 0.0000000000e+00 0.0000e+00 -1.0000e+00
<mgrwt>
<rscale>  2 0.12500000E+03</rscale>
<asrwt>0</asrwt>
<pdfrwt beam="1">  1       21 0.36882971E-01 0.12500000E+03</pdfrwt>
<pdfrwt beam="2">  1       21 0.22904262E-02 0.12500000E+03</pdfrwt>
<totfact> 0.67942455E+06</totfact>
</mgrwt>
</event>
<event>
 6      0 +9.8758382e+01 1.25000000e+02 7.54677100e-03 1.12640300e-01
       21 -1    0    0  502  501 +0.0000000000e+00 +0.0000000000e+00 +3.1923276381e+02 3.1923276381e+02 0.0000000000e+00 0.0000e+00 1.0000e+00
       21 -1    0    0  501  502 -0.0000000000e+00 -0.0000000000e+00 -1.2236369329e+01 1.2236369329e+01 0.0000000000e+00 0.0000e+00 1.0000e+00
       25  2    1    2    0    0 +0.0000000000e+00 +0.0000000000e+00 +3.0699639449e+02 3.3146913314e+02 1.2500000000e+02 0.0000e+00 0.0000e+00
      -15  1    3    3    0    0 -3.6050219805e+01 -5.3534277093e+00 +8.1441033603e+01 8.9241678713e+01 1.7770000000e+00 0.0000e+00 -1.0000e+00
       15  1    3    3    0    0 -2.2487561114e+01 -1.3915205215e+01 +6.0931629698e+01 6.6446554219e+01 1.7770000000e+00 0.0000e+00 -1.0000e+00
       22  1    3    3    0    0 +5.8537780919e+01 +1.9268632924e+01 +1.6462373124e+02 1.7578090026e+02 0.0000000000e+00 0.0000e+00 -1.0000e+00
<mgrwt>
<rscale>  2 0.12500000E+03</rscale>
<asrwt>0</asrwt>
<pdfrwt beam="1">  1       21 0.46945989E-01 0.12500000E+03</pdfrwt>
<pdfrwt beam="2">  1       21 0.17994663E-02 0.12500000E+03</pdfrwt>
<totfact> 0.60466232E+06</totfact>
</mgrwt>
</event>
<event>
 6      0 +9.8758382e+01 1.25000000e+02 7.54677100e-03 1.12640300e-01
       21 -1    0    0  502  501 +0.0000000000e+00 +0.0000000000e+00 +5.9691561244e+02 5.9691561244e+02 0.0000000000e+00 0.0000e+00 -1.0000e+00
       21 -1    0    0  501  502 -0.0000000000e+00 -0.0000000000e+00 -6.5440573484e+00 6.5440573484e+00 0.0000000000e+00 0.0000e+00 -1.0000e+00
       25  2    1    2    0    0 +0.0000000000e+00 +0.0000000000e+00 +5.9037155510e+02 6.0345966979e+02 1.2500000000e+02 0.0000e+00 0.0000e+00
      -15  1    3    3    0    0 -2.8617482274e+01 -3.4592555414e+01 +2.5312743518e+02 2.5708415228e+02 1.7770000000e+00 0.0000e+00 -1.0000e+00
       15  1    3    3    0    0 +3.8615486663e+01 +2.4832061514e+01 +3.2360323158e+02 3.2684858315e+02 1.7770000000e+00 0.0000e+00 -1.0000e+00
       22  1    3    3    0    0 -9.9980043882e+00 +9.7604938993e+00 +1.3640888499e+01 1.9526934526e+01 0.0000000000e+00 0.0000e+00 -1.0000e+00
<mgrwt>
<rscale>  2 0.12500000E+03</rscale>
<asrwt>0</asrwt>
<pdfrwt beam="1">  1       21 0.87781670E-01 0.12500000E+03</pdfrwt>
<pdfrwt beam="2">  1       21 0.96236179E-03 0.12500000E+03</pdfrwt>
<totfact> 0.38304590E+06</totfact>
</mgrwt>
</event>
<event>
 6      0 +9.8758382e+01 1.25000000e+02 7.54677100e-03 1.12640300e-01
       21 -1    0    0  502  501 +0.0000000000e+00 +0.0000000000e+00 +1.0486218078e+02 1.0486218078e+02 0.0000000000e+00 0.0000e+00 1.0000e+00
       21 -1    0    0  501  502 -0.0000000000e+00 -0.0000000000e+00 -3.7251275637e+01 3.7251275637e+01 0.0000000000e+00 0.0000e+00 1.0000e+00
       25  2    1    2    0    0 +0.0000000000e+00 +0.0000000000e+00 +6.7610905138e+01 1.4211345641e+02 1.2500000000e+02 0.0000e+00 0.0000e+00
      -15  1    3    3    0    0 +3.0444445346e+01 -3.2805484570e+01 -2.7905467729e-01 4.4791736635e+01 1.7770000000e+00 0.0000e+00 -1.0000e+00
       15  1    3    3    0    0 -5.1486739802e+00 -1.3056061313e+01 +2.8396816614e+01 3.1725486656e+01 1.7770000000e+00 0.0000e+00 -1.0000e+00
       22  1    3    3    0    0 -2.5295771365e+01 +4.5861545883e+01 +3.9493143202e+01 6.5596233121e+01 0.0000000000e+00 0.0000e+00 -1.0000e+00
<mgrwt>
<rscale>  2 0.12500000E+03</rscale>
<asrwt>0</asrwt>
<pdfrwt beam="1">  1       21 0.15420909E-01 0.12500000E+03</pdfrwt>
<pdfrwt beam="2">  1       21 0.54781288E-02 0.12500000E+03</pdfrwt>
<totfact> 0.85974167E+06</totfact>
</mgrwt>
</event>
<event>
 6      0 +9.8758382e+01 1.25000000e+02 7.54677100e-03 1.12640300e-01
       21 -1    0    0  502  501 +0.0000000000e+00 +0.0000000000e+00 +3.5388060858e+01 3.5388060858e+01 0.0000000000e+00 0.0000e+00 1.0000e+00
       21 -1    0    0  501  502 -0.0000000000e+00 -0.0000000000e+00 -1.1038327349e+02 1.1038327349e+02 0.0000000000e+00 0.0000e+00 1.0000e+00
       25  2    1    2    0    0 +0.0000000000e+00 +0.0000000000e+00 -7.4995212631e+01 1.4577133435e+02 1.2500000000e+02 0.0000e+00 0.0000e+00
      -15  1    3    3    0    0 +8.2782934716e-01 -2.8291249481e+01 +4.2110635782e+00 2.8670034602e+01 1.7770000000e+00 0.0000e+00 -1.0000e+00
       15  1    3    3    0    0 +5.4328188939e+00 +2.3560549297e+01 +1.0951427818e+01 2.6602753703e+01 1.7770000000e+00 0.0000e+00 -1.0000e+00
       22  1    3    3    0    0 -6.2606482411e+00 +4.7307001840e+00 -9.0157704026e+01 9.0498546043e+01 0.0000000000e+00 0.0000e+00 -1.0000e+00
<mgrwt>
<rscale>  2 0.12500000E+03</rscale>
<asrwt>0</asrwt>
<pdfrwt beam="1">  1       21 0.52041266E-02 0.12500000E+03</pdfrwt>
<pdfrwt beam="2">  1       21 0.16232834E-01 0.12500000E+03</pdfrwt>
<totfact> 0.85341887E+06</totfact>
</mgrwt>
</event>
<event>
 6      0 +9.8758382e+01 1.25000000e+02 7.54677100e-03 1.12640300e-01
       21 -1    0    0  502  501 +0.0000000000e+00 +0.0000000000e+00 +1.2262398248e+02 1.2262398248e+02 0.0000000000e+00 0.0000e+00 1.0000e+00
       21 -1    0    0  501  502 -0.0000000000e+00 -0.0000000000e+00 -3.1855514075e+01 3.1855514075e+01 0.0000000000e+00 0.0000e+00 1.0000e+00
       25  2    1    2    0    0 +0.0000000000e+00 +0.0000000000e+00 +9.0768468409e+01 1.5447949656e+02 1.2500000000e+02 0.0000e+00 0.0000e+00
      -15  1    3    3    0    0 +2.1417732051e+01 +1.2697406948e+01 +3.7225347784e+01 4.4819946855e+01 1.7770000000e+00 0.0000e+00 -1.0000e+00
       15  1    3    3    0    0 +1.1825597077e+01 -1.5063585206e+01 +6.9926193132e+01 7.2523007111e+01 1.7770000000e+00 0.0000e+00 -1.0000e+00
       22  1    3    3    0    0 -3.3243329128e+01 +2.3661782583e+00 -1.6383072507e+01 3.7136542593e+01 0.0000000000e+00 0.0000e+00 -1.0000e+00
<mgrwt>
<rscale>  2 0.12500000E+03</rscale>
<asrwt>0</asrwt>
<pdfrwt beam="1">  1       21 0.18032938E-01 0.12500000E+03</pdfrwt>
<pdfrwt beam="2">  1       21 0.46846345E-02 0.12500000E+03</pdfrwt>
<totfact> 0.83881085E+06</totfact>
</mgrwt>
</event>
<event>
 6      0 +9.8758382e+01 1.25000000e+02 7.54677100e-03 1.12640300e-01
       21 -1    0    0  502  501 +0.0000000000e+00 +0.0000000000e+00 +3.4594557697e+00 3.4594557697e+00 0.0000000000e+00 0.0000e+00 -1.0000e+00
       21 -1    0    0  501  502 -0.0000000000e+00 -0.0000000000e+00 -1.1291515949e+03 1.1291515949e+03 0.0000000000e+00 0.0000e+00 -1.0000e+00
       25  2    1    2    0    0 +0.0000000000e+00 +0.0000000000e+00 -1.1256921392e+03 1.1326110507e+03 1.2500000000e+02 0.0000e+00 0.0000e+00
      -15  1    3    3    0    0 -2.8580048521e+01 -1.6596541537e+00 -1.8555177913e+02 1.8775567659e+02 1.7770000000e+00 0.0000e+00 -1.0000e+00
       15  1    3    3    0    0 +3.9786912839e+01 +9.5410699178e-01 -1.6895198958e+02 1.7358525647e+02 1.7770000000e+00 0.0000e+00 -1.0000e+00
       22  1    3    3    0    0 -1.1206864318e+01 +7.0554716194e-01 -7.7118837370e+02 7.7127012086e+02 0.0000000000e+00 0.0000e+00 -1.0000e+00
<mgrwt>
<rscale>  2 0.12500000E+03</rscale>
<asrwt>0</asrwt>
<pdfrwt beam="1">  1       21 0.50874279E-03 0.12500000E+03</pdfrwt>
<pdfrwt beam="2">  1       21 0.16605194E+00 0.12500000E+03</pdfrwt>
<totfact> 0.17590780E+06</totfact>
</mgrwt>
</event>
<event>
 6      0 +9.8758382e+01 1.25000000e+02 7.54677100e-03 1.12640300e-01
       21 -1    0    0  502  501 +0.0000000000e+00 +0.0000000000e+00 +2.8613262136e+01 2.8613262136e+01 0.0000000000e+00 0.0000e+00 -1.0000e+00
       21 -1    0    0  501  502 -0.0000000000e+00 -0.0000000000e+00 -1.3651886253e+02 1.3651886253e+02 0.0000000000e+00 0.0000e+00 -1.0000e+00
       25  2    1    2    0    0 +0.0000000000e+00 +0.0000000000e+00 -1.0790560039e+02 1.6513212466e+02 1.2500000000e+02 0.0000e+00 0.0000e+00
      -15  1    3    3    0    0 +2.8945498609e+01 -2.9460728247e+01 -5.6958480691e+01 7.0378992961e+01 1.7770000000e+00 0.0000e+00 -1.0000e+00
       15  1    3    3    0    0 -2.7539300817e+01 -7.5156715102e+00 -5.0160146765e+01 5.7741635414e+01 1.7770000000e+00 0.0000e+00 -1.0000e+00
       22  1    3    3    0    0 -1.4061977919e+00 +3.6976399757e+01 -7.8697293807e-01 3.7011496291e+01 0.0000000000e+00 0.0000e+00 -1.0000e+00
<mgrwt>
<rscale>  2 0.12500000E+03</rscale>
<asrwt>0</asrwt>
<pdfrwt beam="1">  1       21 0.42078327E-02 0.12500000E+03</pdfrwt>
<pdfrwt beam="2">  1       21 0.20076303E-01 0.12500000E+03</pdfrwt>
<totfact> 0.82144817E+06</totfact>
</mgrwt>
</event>
<event>
 6      0 +9.8758382e+01 1.25000000e+02 7.54677100e-03 1.12640300e-01
       21 -1    0    0  502  501 +0.0000000000e+00 +0.0000000000e+00 +1.9775152249e+01 1.9775152249e+01 0.0000000000e+00 0.0000e+00 -1.0000e+00
       21 -1    0    0  501  502 -0.0000000000e+00 -0.0000000000e+00 -1.9753324530e+02 1.9753324530e+02 0.0000000000e+00 0.0000e+00 -1.0000e+00
       25  2    1    2    0    0 +0.0000000000e+00 +0.0000000000e+00 -1.7775809305e+02 2.1730839755e+02 1.2500000000e+02 0.0000e+00 0.0000e+00
      -15  1    3    3    0    0 -1.7246118060e+01 +7.6824558243e+00 +5.4848643570e+00 1.9740571968e+01 1.7770000000e+00 0.0000e+00 -1.0000e+00
       15  1    3    3    0    0 -1.1379953024e+01 +2.1983988199e+01 -1.1653953051e+02 1.1915292261e+02 1.7770000000e+00 0.0000e+00 -1.0000e+00
       22  1    3    3    0    0 +2.8626071084e+01 -2.9666444023e+01 -6.6703426894e+01 7.8414902959e+01 0.0000000000e+00 0.0000e+00 -1.0000e+00
<mgrwt>
<rscale>  2 0.12500000E+03</rscale>
<asrwt>0</asrwt>
<pdfrwt beam="1">  1       21 0.29081105E-02 0.12500000E+03</pdfrwt>
<pdfrwt beam="2">  1       21 0.29049008E-01 0.12500000E+03</pdfrwt>
<totfact> 0.74363829E+06</totfact>
</mgrwt>
</event>
<event>
 6      0 +9.8758382e+01 1.25000000e+02 7.54677100e-03 1.12640300e-01
       21 -1    0    0  502  501 +0.0000000000e+00 +0.0000000000e+00 +8.0362955244e+00 8.0362955244e+00 0.0000000000e+00 0.0000e+00 1.0000e+00
       21 -1    0    0  501  502 -0.0000000000e+00 -0.0000000000e+00 -4.8607595230e+02 4.8607595230e+02 0.0000000000e+00 0.0000e+00 1.0000e+00
       25  2    1    2    0    0 +0.0000000000e+00 +0.0000000000e+00 -4.7803965678e+02 4.9411224783e+02 1.2500000000e+02 0.0000e+00 0.0000e+00
      -15  1    3    3    0    0 +5.6806504865e+00 -8.7412341571e+00 -3.4656138421e+01 3.6233749789e+01 1.7770000000e+00 0.0000e+00 -1.0000e+00
       15  1    3    3    0    0 +5.2877699083e+01 +1.5691452520e+01 -2.2576723570e+02 2.3241401676e+02 1.7770000000e+00 0.0000e+00 -1.0000e+00
       22  1    3    3    0    0 -5.8558349570e+01 -6.9502183629e+00 -2.1761628264e+02 2.2546448126e+02 0.0000000000e+00 0.0000e+00 -1.0000e+00
<mgrwt>
<rscale>  2 0.12500000E+03</rscale>
<asrwt>0</asrwt>
<pdfrwt beam="1">  1       21 0.11818081E-02 0.12500000E+03</pdfrwt>
<pdfrwt beam="2">  1       21 0.71481759E-01 0.12500000E+03</pdfrwt>
<totfact> 0.45767104E+06</totfact>
</mgrwt>
</event>
<event>
 6      0 +9.8758382e+01 1.25000000e+02 7.54677100e-03 1.12640300e-01
       21 -1    0    0  502  501 +0.0000000000e+00 +0.0000000000e+00 +1.3951850668e+01 1.3951850668e+01 0.0000000000e+00 0.0000e+00 1.0000e+00
       21 -1    0    0  501  502 -0.0000000000e+00 -0.0000000000e+00 -2.7998077767e+02 2.7998077767e+02 0.0000000000e+00 0.0000e+00 1.0000e+00
       25  2    1    2    0    0 +0.0000000000e+00 +0.0000000000e+00 -2.6602892700e+02 2.9393262834e+02 1.2500000000e+02 0.0000e+00 0.0000e+00
      -15  1    3    3    0    0 -3.4322986673e+00 +2.0328425266e+00 +2.2542611068e+00 4.9145238834e+00 1.7770000000e+00 0.0000e+00 -1.0000e+00
       15  1    3    3    0    0 -4.4123696023e+00 -4.4017954970e+01 -5.0823329447e+01 6.7403396875e+01 1.7770000000e+00 0.0000e+00 -1.0000e+00
       22  1    3    3    0    0 +7.8446682697e+00 +4.1985112443e+01 -2.1745985864e+02 2.2161470756e+02 0.0000000000e+00 0.0000e+00 -1.0000e+00
<mgrwt>
<rscale>  2 0.12500000E+03</rscale>
<asrwt>0</asrwt>
<pdfrwt beam="1">  1       21 0.20517428E-02 0.12500000E+03</pdfrwt>
<pdfrwt beam="2">  1       21 0.41173642E-01 0.12500000E+03</pdfrwt>
<totfact> 0.64651223E+06</totfact>
</mgrwt>
</event>
<event>
 6      0 +9.8758382e+01 1.25000000e+02 7.54677100e-03 1.12640300e-01
       21 -1    0    0  502  501 +0.0000000000e+00 +0.0000000000e+00 +3.4749372248e+01 3.4749372248e+01 0.0000000000e+00 0.0000e+00 -1.0000e+00
       21 -1    0    0  501  502 -0.0000000000e+00 -0.0000000000e+00 -1.1241210264e+02 1.1241210264e+02 0.0000000000e+00 0.0000e+00 -1.0000e+00
       25  2    1    2    0    0 +0.0000000000e+00 +0.0000000000e+00 -7.7662730396e+01 1.4716147489e+02 1.2500000000e+02 0.0000e+00 0.0000e+00
      -15  1    3    3    0    0 -3.8684362564e+01 +2.7386764362e+01 -3.5416064614e+01 5.9194342051e+01 1.7770000000e+00 0.0000e+00 -1.0000e+00
       15  1    3    3    0    0 -1.0357714726e+01 -1.7359118031e+01 +2.9739731598e+00 2.0509107209e+01 1.7770000000e+00 0.0000e+00 -1.0000e+00
       22  1    3    3    0    0 +4.9042077290e+01 -1.0027646331e+01 -4.5220638943e+01 6.7458025633e+01 0.0000000000e+00 0.0000e+00 -1.0000e+00
<mgrwt>
<rscale>  2 0.12500000E+03</rscale>
<asrwt>0</asrwt>
<pdfrwt beam="1">  1       21 0.51102019E-02 0.12500000E+03</pdfrwt>
<pdfrwt beam="2">  1       21 0.16531191E-01 0.12500000E+03</pdfrwt>
<totfact> 0.85104695E+06</totfact>
</mgrwt>
</event>
<event>
 6      0 +9.8758382e+01 1.25000000e+02 7.54677100e-03 1.12640300e-01
       21 -1    0    0  502  501 +0.0000000000e+00 +0.0000000000e+00 +8.6631823161e+01 8.6631823161e+01 0.0000000000e+00 0.0000e+00 1.0000e+00
       21 -1    0    0  501  502 -0.0000000000e+00 -0.0000000000e+00 -4.5090243487e+01 4.5090243487e+01 0.0000000000e+00 0.0000e+00 1.0000e+00
       25  2    1    2    0    0 +0.0000000000e+00 +0.0000000000e+00 +4.1541579674e+01 1.3172206665e+02 1.2500000000e+02 0.0000e+00 0.0000e+00
      -15  1    3    3    0    0 -1.0117719883e+01 -2.6541254593e+01 +2.8792965751e+01 4.0484553311e+01 1.7770000000e+00 0.0000e+00 -1.0000e+00
       15  1    3    3    0    0 -1.0343391351e+00 +1.0230684324e+01 +4.8920400549e+01 5.0020996371e+01 1.7770000000e+00 0.0000e+00 -1.0000e+00
       22  1    3    3    0    0 +1.1152059019e+01 +1.6310570269e+01 -3.6171786627e+01 4.1216516964e+01 0.0000000000e+00 0.0000e+00 -1.0000e+00
<mgrwt>
<rscale>  2 0.12500000E+03</rscale>
<asrwt>0</asrwt>
<pdfrwt beam="1">  1       21 0.12739974E-01 0.12500000E+03</pdfrwt>
<pdfrwt beam="2">  1       21 0.66309181E-02 0.12500000E+03</pdfrwt>
<totfact> 0.87786023E+06</totfact>
</mgrwt>
</event>
<event>
 6      0 +9.8758382e+01 1.25000000e+02 7.54677100e-03 1.12640300e-01
       21 -1    0    0  502  501 +0.0000000000e+00 +0.0000000000e+00 +6.6160378073e+01 6.6160378073e+01 0.0000000000e+00 0.0000e+00 -1.0000e+00
       21 -1    0    0  501  502 -0.0000000000e+00 -0.0000000000e+00 -5.9042135396e+01 5.9042135396e+01 0.0000000000e+00 0.0000e+00 -1.0000e+00
       25  2    1    2    0    0 +0.0000000000e+00 +0.0000000000e+00 +7.1182426772e+00 1.2520251347e+02 1.2500000000e+02 0.0000e+00 0.0000e+00
      -15  1    3    3    0    0 -3.5330985130e+01 -1.9192102890e+01 -1.6018958385e+00 4.0278271100e+01 1.7770000000e+00 0.0000e+00 -1.0000e+00
       15  1    3    3    0    0 +2.8520792589e+01 -2.4606221705e+01 -6.0732677440e+00 3.8196126330e+01 1.7770000000e+00 0.0000e+00 -1.0000e+00
       22  1    3    3    0    0 +6.8101925408e+00 +4.3798324595e+01 +1.4793406259e+01 4.6728116038e+01 0.0000000000e+00 0.0000e+00 -1.0000e+00
<mgrwt>
<rscale>  2 0.12500000E+03</rscale>
<asrwt>0</asrwt>
<pdfrwt beam="1">  1       21 0.97294674E-02 0.12500000E+03</pdfrwt>
<pdfrwt beam="2">  1       21 0.86826669E-02 0.12500000E+03</pdfrwt>
<totfact> 0.88960292E+06</totfact>
</mgrwt>
</event>
<event>
 6      0 +9.8758382e+01 1.25000000e+02 7.54677100e-03 1.12640300e-01
       21 -1    0    0  502  501 +0.0000000000e+00 +0.0000000000e+00 +6.7538246814e+01 6.7538246814e+01 0.0000000000e+00 0.0000e+00 1.0000e+00
       21 -1    0    0  501  502 -0.0000000000e+00 -0.0000000000e+00 -5.7837598461e+01 5.7837598461e+01 0.0000000000e+00 0.0000e+00 1.0000e+00
       25  2    1    2    0    0 +0.0000000000e+00 +0.0000000000e+00 +9.7006483533e+00 1.2537584528e+02 1.2500000000e+02 0.0000e+00 0.0000e+00
      -15  1    3    3    0    0 -1.1682340611e+00 +5.0024086863e+01 +1.0515653814e+01 5.1161613945e+01 1.7770000000e+00 0.0000e+00 -1.0000e+00
       15  1    3    3    0    0 +3.0342992164e+00 -3.4657030345e+01 +2.5852101081e+01 4.3379783118e+01 1.7770000000e+00 0.0000e+00 -1.0000e+00
       22  1    3    3    0    0 -1.8660651553e+00 -1.5367056518e+01 -2.6667106542e+01 3.0834448211e+01 0.0000000000e+00 0.0000e+00 -1.0000e+00
<mgrwt>
<rscale>  2 0.12500000E+03</rscale>
<asrwt>0</asrwt>
<pdfrwt beam="1">  1       21 0.99320951E-02 0.12500000E+03</pdfrwt>
<pdfrwt beam="2">  1       21 0.85055292E-02 0.12500000E+03</pdfrwt>
<totfact> 0.88926805E+06</totfact>
</mgrwt>
</event>
<event>
 6      0 +9.8758382e+01 1.25000000e+02 7.54677100e-03 1.12640300e-01
       21 -1    0    0  502  501 +0.0000000000e+00 +0.0000000000e+00 +2.0539049037e+01 2.0539049037e+01 0.0000000000e+00 0.0000e+00 1.0000e+00
       21 -1    0    0  501  502 -0.0000000000e+00 -0.0000000000e+00 -1.9018650732e+02 1.9018650732e+02 0.0000000000e+00 0.0000e+00 1.0000e+00
       25  2    1    2    0    0 +0.0000000000e+00 +0.0000000000e+00 -1.6964745828e+02 2.1072555635e+02 1.2500000000e+02 0.0000e+00 0.0000e+00
      -15  1    3    3    0    0 +2.5873652655e+00 +2.2881870490e+00 +1.7017826848e+01 1.7455498235e+01 1.7770000000e+00 0.0000e+00 -1.0000e+00
       15  1    3    3    0    0 +1.8415234304e+00 -1.0944352968e+00 +2.6831875739e+00 3.8660343674e+00 1.7770000000e+00 0.0000e+00 -1.0000e+00
       22  1    3    3    0    0 -4.4288886959e+00 -1.1937517522e+00 -1.8934847271e+02 1.8940402376e+02 0.0000000000e+00 0.0000e+00 -1.0000e+00
<mgrwt>
<rscale>  2 0.12500000E+03</rscale>
<asrwt>0</asrwt>
<pdfrwt beam="1">  1       21 0.30204484E-02 0.12500000E+03</pdfrwt>
<pdfrwt beam="2">  1       21 0.27968604E-01 0.12500000E+03</pdfrwt>
<totfact> 0.75282021E+06</totfact>
</mgrwt>
</event>
<event>
 6      0 +9.8758382e+01 1.25000000e+02 7.54677100e-03 1.12640300e-01
       21 -1    0    0  502  501 +0.0000000000e+00 +0.0000000000e+00 +3.2816923522e+01 3.2816923522e+01 0.0000000000e+00 0.0000e+00 1.0000e+00
       21 -1    0    0  501  502 -0.0000000000e+00 -0.0000000000e+00 -1.1903157215e+02 1.1903157215e+02 0.0000000000e+00 0.0000e+00 1.0000e+00
       25  2    1    2    0    0 +0.0000000000e+00 +0.0000000000e+00 -8.6214648628e+01 1.5184849567e+02 1.2500000000e+02 0.0000e+00 0.0000e+00
      -15  1    3    3    0    0 -3.5223268409e+01 +4.7385770898e+00 -4.4933065472e+00 3.5867538010e+01 1.7770000000e+00 0.0000e+00 -1.0000e+00
       15  1    3    3    0    0 +1.2898983114e+01 -3.7950355714e+01 -2.7712236301e+01 4.8762065523e+01 1.7770000000e+00 0.0000e+00 -1.0000e+00
       22  1    3    3    0    0 +2.2324285295e+01 +3.3211778624e+01 -5.4009105781e+01 6.7218892140e+01 0.0000000000e+00 0.0000e+00 -1.0000e+00
<mgrwt>
<rscale>  2 0.12500000E+03</rscale>
<asrwt>0</asrwt>
<pdfrwt beam="1">  1       21 0.48260182E-02 0.12500000E+03</pdfrwt>
<pdfrwt beam="2">  1       21 0.17504643E-01 0.12500000E+03</pdfrwt>
<totfact> 0.84316632E+06</totfact>
</mgrwt>
</event>
<event>
 6      0 +9.8758382e+01 1.25000000e+02 7.54677100e-03 1.12640300e-01
       21 -1    0    0  502  501 +0.0000000000e+00 +0.0000000000e+00 +1.6476701961e+02 1.6476701961e+02 0.0000000000e+00 0.0000e+00 -1.0000e+00
       21 -1    0    0  501  502 -0.0000000000e+00 -0.0000000000e+00 -2.3707717777e+01 2.3707717777e+01 0.0000000000e+00 0.0000e+00 -1.0000e+00
       25  2    1    2    0    0 +0.0000000000e+00 +0.0000000000e+00 +1.4105930184e+02 1.8847473739e+02 1.2500000000e+02 0.0000e+00 0.0000e+00
      -15  1    3    3    0    0 -1.4214086449e+01 -3.6126918227e+01 +9.8158970542e+01 1.0557241922e+02 1.7770000000e+00 0.0000e+00 -1.0000e+00
       15  1    3    3    0    0 -9.1335630364e+00 +6.4893311485e-01 -1.0907923320e+01 1.4352129043e+01 1.7770000000e+00 0.0000e+00 -1.0000e+00
       22  1    3    3    0    0 +2.3347649486e+01 +3.5477985112e+01 +5.3808254625e+01 6.8550189131e+01 0.0000000000e+00 0.0000e+00 -1.0000e+00
<mgrwt>
<rscale>  2 0.12500000E+03</rscale>
<asrwt>0</asrwt>
<pdfrwt beam="1">  1       21 0.24230444E-01 0.12500000E+03</pdfrwt>
<pdfrwt beam="2">  1       21 0.34864292E-02 0.12500000E+03</pdfrwt>
<totfact> 0.78525511E+06</totfact>
</mgrwt>
</event>
<event>
 6      0 +9.8758382e+01 1.25000000e+02 7.54677100e-03 1.12640300e-01
       21 -1    0    0  502  501 +0.0000000000e+00 +0.0000000000e+00 +4.0988118051e+02 4.0988118051e+02 0.0000000000e+00 0.0000e+00 1.0000e+00
       21 -1    0    0  501  502 -0.0000000000e+00 -0.0000000000e+00 -9.5302009113e+00 9.5302009113e+00 0.0000000000e+00 0.0000e+00 1.0000e+00
       25  2    1    2    0    0 +0.0000000000e+00 +0.0000000000e+00 +4.0035097960e+02 4.1941138142e+02 1.2500000000e+02 0.0000e+00 0.0000e+00
      -15  1    3    3    0    0 +2.5926919839e+01 +3.0342734737e+01 +7.9546121867e+01 8.9014773812e+01 1.7770000000e+00 0.0000e+00 -1.0000e+00
       15  1    3    3    0    0 -3.6055969262e+01 +5.4532717769e+00 +2.1868517860e+02 2.2171183135e+02 1.7770000000e+00 0.0000e+00 -1.0000e+00
       22  1    3    3    0    0 +1.0129049423e+01 -3.5796006514e+01 +1.0211967916e+02 1.0868477628e+02 0.0000000000e+00 0.0000e+00 -1.0000e+00
<mgrwt>
<rscale>  2 0.12500000E+03</rscale>
<asrwt>0</asrwt>
<pdfrwt beam="1">  1       21 0.60276633E-01 0.12500000E+03</pdfrwt>
<pdfrwt beam="2">  1       21 0.14015004E-02 0.12500000E+03</pdfrwt>
<totfact> 0.51900077E+06</totfact>
</mgrwt>
</event>
<event>
 6      0 +9.8758382e+01 1.25000000e+02 7.54677100e-03 1.12640300e-01
       21 -1    0    0  502  501 +0.0000000000e+00 +0.0000000000e+00 +2.3325823294e+01 2.3325823294e+01 0.0000000000e+00 0.0000e+00 1.0000e+00
       21 -1    0    0  501  502 -0.0000000000e+00 -0.0000000000e+00 -1.6746461425e+02 1.6746461425e+02 0.0000000000e+00 0.0000e+00 1.0000e+00
       25  2    1    2    0    0 +0.0000000000e+00 +0.0000000000e+00 -1.4413879096e+02 1.9079043754e+02 1.2500000000e+02 0.0000e+00 0.0000e+00
      -15  1    3    3    0    0 +5.3181534849e+01 -1.8606438822e+01 -3.6723814786e+01 6.7277570675e+01 1.7770000000e+00 0.0000e+00 -1.0000e+00
       15  1    3    3    0    0 -2.2467371043e+01 +1.9468704220e+01 -4.5290130907e+01 5.4204860411e+01 1.7770000000e+00 0.0000e+00 -1.0000e+00
       22  1    3    3    0    0 -3.0714163806e+01 -8.6226539863e-01 -6.2124845279e+01 6.9308006471e+01 0.0000000000e+00 0.0000e+00 -1.0000e+00
<mgrwt>
<rscale>  2 0.12500000E+03</rscale>
<asrwt>0</asrwt>
<pdfrwt beam="1">  1       21 0.34302683E-02 0.12500000E+03</pdfrwt>
<pdfrwt beam="2">  1       21 0.24627148E-01 0.12500000E+03</pdfrwt>
<totfact> 0.78179735E+06</totfact>
</mgrwt>
</event>
<event>
 6      0 +9.8758382e+01 1.25000000e+02 7.54677100e-03 1.12640300e-01
       21 -1    0    0  502  501 +0.0000000000e+00 +0.0000000000e+00 +1.9431746556e+01 1.9431746556e+01 0.0000000000e+00 0.0000e+00 -1.0000e+00
       21 -1    0    0  501  502 -0.0000000000e+00 -0.0000000000e+00 -2.0102413279e+02 2.0102413279e+02 0.0000000000e+00 0.0000e+00 -1.0000e+00
       25  2    1    2    0    0 +0.0000000000e+00 +0.0000000000e+00 -1.8159238623e+02 2.2045587934e+02 1.2500000000e+02 0.0000e+00 0.0000e+00
      -15  1    3    3    0    0 -1.6435801154e+01 +2.1294228414e+01 -4.9138549779e+01 5.6047609465e+01 1.7770000000e+00 0.0000e+00 -1.0000e+00
       15  1    3    3    0    0 +2.1106128917e+01 +2.6718771079e+01 -1.0154395716e+02 1.0711533210e+02 1.7770000000e+00 0.0000e+00 -1.0000e+00
       22  1    3    3    0    0 -4.6703277631e+00 -4.8012999493e+01 -3.0909879297e+01 5.7292937784e+01 0.0000000000e+00 0.0000e+00 -1.0000e+00
<mgrwt>
<rscale>  2 0.12500000E+03</rscale>
<asrwt>0</asrwt>
<pdfrwt beam="1">  1       21 0.28576099E-02 0.12500000E+03</pdfrwt>
<pdfrwt beam="2">  1       21 0.29562371E-01 0.12500000E+03</pdfrwt>
<totfact> 0.73930715E+06</totfact>
</mgrwt>
</event>
<event>
 6      0 +9.8758382e+01 1.25000000e+02 7.54677100e-03 1.12640300e-01
       21 -1    0    0  502  501 +0.0000000000e+00 +0.0000000000e+00 +8.7853428646e+01 8.7853428646e+01 0.0000000000e+00 0.0000e+00 -1.0000e+00
       21 -1    0    0  501  502 -0.0000000000e+00 -0.0000000000e+00 -4.4463261824e+01 4.4463261824e+01 0.0000000000e+00 0.0000e+00 -1.0000e+00
       25  2    1    2    0    0 +0.0000000000e+00 +0.0000000000e+00 +4.3390166823e+01 1.3231669047e+02 1.2500000000e+02 0.0000e+00 0.0000e+00
      -15  1    3    3    0    0 -2.2585517887e+00 -3.5907891964e+01 +5.3713108658e+01 6.4674056098e+01 1.7770000000e+00 0.0000e+00 -1.0000e+00
       15  1    3    3    0    0 +1.0590343296e+01 +4.6082895142e+00 +2.0071453944e+01 2.3225259866e+01 1.7770000000e+00 0.0000e+00 -1.0000e+00
       22  1    3    3    0    0 -8.3317915075e+00 +3.1299602450e+01 -3.0394395779e+01 4.4417374506e+01 0.0000000000e+00 0.0000e+00 -1.0000e+00
<mgrwt>
<rscale>  2 0.12500000E+03</rscale>
<asrwt>0</asrwt>
<pdfrwt beam="1">  1       21 0.12919622E-01 0.12500000E+03</pdfrwt>
<pdfrwt beam="2">  1       21 0.65387149E-02 0.12500000E+03</pdfrwt>
<totfact> 0.87679625E+06</totfact>
</mgrwt>
</event>
<event>
 6      0 +9.8758382e+01 1.25000000e+02 7.54677100e-03 1.12640300e-01
       21 -1    0    0  502  501 +0.0000000000e+00 +0.0000000000e+00 +1.9712359815e+03 1.9712359815e+03 0.0000000000e+00 0.0000e+00 -1.0000e+00
       21 -1    0    0  501  502 -0.0000000000e+00 -0.0000000000e+00 -1.9816247454e+00 1.9816247454e+00 0.0000000000e+00 0.0000e+00 -1.0000e+00
       25  2    1    2    0    0 +0.0000000000e+00 +0.0000000000e+00 +1.9692543568e+03 1.9732176063e+03 1.2500000000e+02 0.0000e+00 0.0000e+00
      -15  1    3    3    0    0 -1.4200139874e+01 -5.9751915713e+00 +2.5851468191e+02 2.5897943041e+02 1.7770000000e+00 0.0000e+00 -1.0000e+00
       15  1    3    3    0    0 +5.5450618917e+01 -2.0591794903e+01 +1.0606234021e+03 1.0622730120e+03 1.7770000000e+00 0.0000e+00 -1.0000e+00
       22  1    3    3    0    0 -4.1250479043e+01 +2.6566986475e+01 +6.5011627046e+02 6.5196516157e+02 0.0000000000e+00 0.0000e+00 -1.0000e+00
<mgrwt>
<rscale>  2 0.12500000E+03</rscale>
<asrwt>0</asrwt>
<pdfrwt beam="1">  1       21 0.28988628E+00 0.12500000E+03</pdfrwt>
<pdfrwt beam="2">  1       21 0.29141678E-03 0.12500000E+03</pdfrwt>
<totfact> 0.55905403E+05</totfact>
</mgrwt>
</event>
<event>
 6      0 +9.8758382e+01 1.25000000e+02 7.54677100e-03 1.12640300e-01
       21 -1    0    0  502  501 +0.0000000000e+00 +0.0000000000e+00 +1.3228200421e+02 1.3228200421e+02 0.0000000000e+00 0.0000e+00 1.0000e+00
       21 -1    0    0  501  502 -0.0000000000e+00 -0.0000000000e+00 -2.9529715877e+01 2.9529715877e+01 0.0000000000e+00 0.0000e+00 1.0000e+00
       25  2    1    2    0    0 +0.0000000000e+00 +0.0000000000e+00 +1.0275228834e+02 1.6181172009e+02 1.2500000000e+02 0.0000e+00 0.0000e+00
      -15  1    3    3    0    0 +4.6853416021e+01 +7.6141906054e+00 +3.3997491435e+01 5.8414087721e+01 1.7770000000e+00 0.0000e+00 -1.0000e+00
       15  1    3    3    0    0 +2.7423997534e+00 +1.8791624277e+01 +8.1142264169e+00 2.0727862860e+01 1.7770000000e+00 0.0000e+00 -1.0000e+00
       22  1    3    3    0    0 -4.9595815774e+01 -2.6405814882e+01 +6.0640570491e+01 8.2669769514e+01 0.0000000000e+00 0.0000e+00 -1.0000e+00
<mgrwt>
<rscale>  2 0.12500000E+03</rscale>
<asrwt>0</asrwt>
<pdfrwt beam="1">  1       21 0.19453236E-01 0.12500000E+03</pdfrwt>
<pdfrwt beam="2">  1       21 0.43426053E-02 0.12500000E+03</pdfrwt>
<totfact> 0.82683899E+06</totfact>
</mgrwt>
</event>
<event>
 6      0 +9.8758382e+01 1.25000000e+02 7.54677100e-03 1.12640300e-01
       21 -1    0    0  502  501 +0.0000000000e+00 +0.0000000000e+00 +1.6107019312e+03 1.6107019312e+03 0.0000000000e+00 0.0000e+00 1.0000e+00
       21 -1    0    0  501  502 -0.0000000000e+00 -0.0000000000e+00 -2.4251848988e+00 2.4251848988e+00 0.0000000000e+00 0.0000e+00 1.0000e+00
       25  2    1    2    0    0 +0.0000000000e+00 +0.0000000000e+00 +1.6082767463e+03 1.6131271161e+03 1.2500000000e+02 0.0000e+00 0.0000e+00
      -15  1    3    3    0    0 +2.0914618022e+01 +2.2379033180e+01 +1.8692332229e+02 1.8942473048e+02 1.7770000000e+00 0.0000e+00 -1.0000e+00
       15  1    3    3    0    0 +2.5525678854e+01 -1.8902259647e+01 +3.8879923302e+02 3.9009852220e+02 1.7770000000e+00 0.0000e+00 -1.0000e+00
       22  1    3    3    0    0 -4.6440296876e+01 -3.4767735332e+00 +1.0325541906e+03 1.0336038630e+03 0.0000000000e+00 0.0000e+00 -1.0000e+00
<mgrwt>
<rscale>  2 0.12500000E+03</rscale>
<asrwt>0</asrwt>
<pdfrwt beam="1">  1       21 0.23686719E+00 0.12500000E+03</pdfrwt>
<pdfrwt beam="2">  1       21 0.35664596E-03 0.12500000E+03</pdfrwt>
<totfact> 0.90903848E+05</totfact>
</mgrwt>
</event>
<event>
 6      0 +9.8758382e+01 1.25000000e+02 7.54677100e-03 1.12640300e-01
       21 -1    0    0  502  501 +0.0000000000e+00 +0.0000000000e+00 +1.4441907332e+01 1.4441907332e+01 0.0000000000e+00 0.0000e+00 -1.0000e+00
       21 -1    0    0  501  502 -0.0000000000e+00 -0.0000000000e+00 -2.7048020114e+02 2.7048020114e+02 0.0000000000e+00 0.0000e+00 -1.0000e+00
       25  2    1    2    0    0 +0.0000000000e+00 +0.0000000000e+00 -2.5603829381e+02 2.8492210847e+02 1.2500000000e+02 0.0000e+00 0.0000e+00
      -15  1    3    3    0    0 -2.0389289605e+00 -2.8150250182e+01 -1.1118345005e+01 3.0386989671e+01 1.7770000000e+00 0.0000e+00 -1.0000e+00
       15  1    3    3    0    0 -1.7171577614e+00 -1.6705549900e+01 -2.5770890264e+01 3.0811045783e+01 1.7770000000e+00 0.0000e+00 -1.0000e+00
       22  1    3    3    0    0 +3.7560867219e+00 +4.4855800082e+01 -2.1914905856e+02 2.2372407304e+02 0.0000000000e+00 0.0000e+00 -1.0000e+00
<mgrwt>
<rscale>  2 0.12500000E+03</rscale>
<asrwt>0</asrwt>
<pdfrwt beam="1">  1       21 0.21238101E-02 0.12500000E+03</pdfrwt>
<pdfrwt beam="2">  1       21 0.39776496E-01 0.12500000E+03</pdfrwt>
<totfact> 0.65706961E+06</totfact>
</mgrwt>
</event>
<event>
 6      0 +9.8758382e+01 1.25000000e+02 7.54677100e-03 1.12640300e-01
       21 -1    0    0  502  501 +0.0000000000e+00 +0.0000000000e+00 +7.9208606182e+02 7.9208606182e+02 0.0000000000e+00 0.0000e+00 -1.0000e+00
       21 -1    0    0  501  502 -0.0000000000e+00 -0.0000000000e+00 -4.9315979517e+00 4.9315979517e+00 0.0000000000e+00 0.0000e+00 -1.0000e+00
       25  2    1    2    0    0 +0.0000000000e+00 +0.0000000000e+00 +7.8715446386e+02 7.9701765977e+02 1.2500000000e+02 0.0000e+00 0.0000e+00
      -15  1    3    3    0    0 +1.4397736209e+01 +4.6870188620e+00 +4.6517478367e+01 4.8951981333e+01 1.7770000000e+00 0.0000e+00 -1.0000e+00
       15  1    3    3    0    0 +2.9819091626e+01 +2.4721229278e+01 +1.4596390797e+02 1.5102628102e+02 1.7770000000e+00 0.0000e+00 -1.0000e+00
       22  1    3    3    0    0 -4.4216827836e+01 -2.9408248140e+01 +5.9467307726e+02 5.9703939714e+02 0.0000000000e+00 0.0000e+00 -1.0000e+00
<mgrwt>
<rscale>  2 0.12500000E+03</rscale>
<asrwt>0</asrwt>
<pdfrwt beam="1">  1       21 0.11648316E+00 0.12500000E+03</pdfrwt>
<pdfrwt beam="2">  1       21 0.72523554E-03 0.12500000E+03</pdfrwt>
<totfact> 0.28410459E+06</totfact>
</mgrwt>
</event>
<event>
 6      0 +9.8758382e+01 1.25000000e+02 7.54677100e-03 1.12640300e-01
       21 -1    0    0  502  501 +0.0000000000e+00 +0.0000000000e+00 +2.1408148480e+01 2.1408148480e+01 0.0000000000e+00 0.0000e+00 -1.0000e+00
       21 -1    0    0  501  502 -0.0000000000e+00 -0.0000000000e+00 -1.8246556930e+02 1.8246556930e+02 0.0000000000e+00 0.0000e+00 -1.0000e+00
       25  2    1    2    0    0 +0.0000000000e+00 +0.0000000000e+00 -1.6105742082e+02 2.0387371778e+02 1.2500000000e+02 0.0000e+00 0.0000e+00
      -15  1    3    3    0    0 -3.7654150140e+00 -1.0751846826e+01 -5.1132544495e+01 5.2416365726e+01 1.7770000000e+00 0.0000e+00 -1.0000e+00
       15  1    3    3    0    0 +2.7891632427e+01 +4.0925765929e+01 -9.9942664879e+01 1.1155516783e+02 1.7770000000e+00 0.0000e+00 -1.0000e+00
       22  1    3    3    0    0 -2.4126217413e+01 -3.0173919104e+01 -9.9822114449e+00 3.9902184227e+01 0.0000000000e+00 0.0000e+00 -1.0000e+00
<mgrwt>
<rscale>  2 0.12500000E+03</rscale>
<asrwt>0</asrwt>
<pdfrwt beam="1">  1       21 0.31482571E-02 0.12500000E+03</pdfrwt>
<pdfrwt beam="2">  1       21 0.26833172E-01 0.12500000E+03</pdfrwt>
<totfact> 0.76257467E+06</totfact>
</mgrwt>
</event>
<event>
 6      0 +9.8758382e+01 1.25000000e+02 7.54677100e-03 1.12640300e-01
       21 -1    0    0  502  501 +0.0000000000e+00 +0.0000000000e+00 +4.4069539446e+01 4.4069539446e+01 0.0000000000e+00 0.0000e+00 -1.0000e+00
       21 -1    0    0  501  502 -0.0000000000e+00 -0.0000000000e+00 -8.8638321369e+01 8.8638321369e+01 0.0000000000e+00 0.0000e+00 -1.0000e+00
       25  2    1    2    0    0 +0.0000000000e+00 +0.0000000000e+00 -4.4568781923e+01 1.3270786081e+02 1.2500000000e+02 0.0000e+00 0.0000e+00
      -15  1    3    3    0    0 +5.6513213446e+00 -8.3228162407e+00 +8.5613586077e+00 1.3328964450e+01 1.7770000000e+00 0.0000e+00 -1.0000e+00
       15  1    3    3    0    0 -3.1501728996e+01 -1.9331737614e+01 +1.6194715013e+01 4.0391849825e+01 1.7770000000e+00 0.0000e+00 -1.0000e+00
       22  1    3    3    0    0 +2.5850407651e+01 +2.7654553855e+01 -6.9324855546e+01 7.8987046540e+01 0.0000000000e+00 0.0000e+00 -1.0000e+00
<mgrwt>
<rscale>  2 0.12500000E+03</rscale>
<asrwt>0</asrwt>
<pdfrwt beam="1">  1       21 0.64808147E-02 0.12500000E+03</pdfrwt>
<pdfrwt beam="2">  1       21 0.13035047E-01 0.12500000E+03</pdfrwt>
<totfact> 0.87609948E+06</totfact>
</mgrwt>
</event>
<event>
 6      0 +9.8758382e+01 1.25000000e+02 7.54677100e-03 1.12640300e-01
       21 -1    0    0  502  501 +0.0000000000e+00 +0.0000000000e+00 +1.5915213488e+01 1.5915213488e+01 0.0000000000e+00 0.0000e+00 1.0000e+00
       21 -1    0    0  501  502 -0.0000000000e+00 -0.0000000000e+00 -2.4544125675e+02 2.4544125675e+02 0.0000000000e+00 0.0000e+00 1.0000e+00
       25  2    1    2    0    0 +0.0000000000e+00 +0.0000000000e+00 -2.2952604326e+02 2.6135647024e+02 1.2500000000e+02 0.0000e+00 0.0000e+00
      -15  1    3    3    0    0 -2.0311706561e+01 +2.3255465100e+01 -6.5258257301e+01 7.2216202859e+01 1.7770000000e+00 0.0000e+00 -1.0000e+00
       15  1    3    3    0    0 -3.1882754071e+01 +3.1299044288e+00 -8.3247234446e+01 8.9216400290e+01 1.7770000000e+00 0.0000e+00 -1.0000e+00
       22  1    3    3    0    0 +5.2194460633e+01 -2.6385369529e+01 -8.1020551501e+01 9.9923867076e+01 0.0000000000e+00 0.0000e+00 -1.0000e+00
<mgrwt>
<rscale>  2 0.12500000E+03</rscale>
<asrwt>0</asrwt>
<pdfrwt beam="1">  1       21 0.23404728E-02 0.12500000E+03</pdfrwt>
<pdfrwt beam="2">  1       21 0.36094300E-01 0.12500000E+03</pdfrwt>
<totfact> 0.68565141E+06</totfact>
</mgrwt>
</event>
<event>
 6      0 +9.8758382e+01 1.25000000e+02 7.54677100e-03 1.12640300e-01
       21 -1    0    0  502  501 +0.0000000000e+00 +0.0000000000e+00 +5.5574541150e+01 5.5574541150e+01 0.0000000000e+00 0.0000e+00 -1.0000e+00
       21 -1    0    0  501  502 -0.0000000000e+00 -0.0000000000e+00 -7.0288479566e+01 7.0288479566e+01 0.0000000000e+00 0.0000e+00 -1.0000e+00
       25  2    1    2    0    0 +0.0000000000e+00 +0.0000000000e+00 -1.4713938415e+01 1.2586302072e+02 1.2500000000e+02 0.0000e+00 0.0000e+00
      -15  1    3    3    0    0 -2.6426719480e+00 +4.5578338402e+01 -4.4800228184e+01 6.3988958586e+01 1.7770000000e+00 0.0000e+00 -1.0000e+00
       15  1    3    3    0    0 +2.4401040143e+00 -1.3107810103e+01 -4.7370074583e+00 1.4260636800e+01 1.7770000000e+00 0.0000e+00 -1.0000e+00
       22  1    3    3    0    0 +2.0256793371e-01 -3.2470528300e+01 +3.4823297228e+01 4.7613425329e+01 0.0000000000e+00 0.0000e+00 -1.0000e+00
<mgrwt>
<rscale>  2 0.12500000E+03</rscale>
<asrwt>0</asrwt>
<pdfrwt beam="1">  1       21 0.81727266E-02 0.12500000E+03</pdfrwt>
<pdfrwt beam="2">  1       21 0.10336541E-01 0.12500000E+03</pdfrwt>
<totfact> 0.88836612E+06</totfact>
</mgrwt>
</event>
<event>
 6      0 +9.8758382e+01 1.25000000e+02 7.54677100e-03 1.12640300e-01
       21 -1    0    0  502  501 +0.0000000000e+00 +0.0000000000e+00 +2.5814279214e+01 2.5814279214e+01 0.0000000000e+00 0.0000e+00 1.0000e+00
       21 -1    0    0  501  502 -0.0000000000e+00 -0.0000000000e+00 -1.5132128880e+02 1.5132128880e+02 0.0000000000e+00 0.0000e+00 1.0000e+00
       25  2    1    2    0    0 +0.0000000000e+00 +0.0000000000e+00 -1.2550700958e+02 1.7713556801e+02 1.2500000000e+02 0.0000e+00 0.0000e+00
      -15  1    3    3    0    0 -1.4273353397e+01 +3.1914722409e+01 -2.4230812019e+01 4.2574265745e+01 1.7770000000e+00 0.0000e+00 -1.0000e+00
       15  1    3    3    0    0 -3.2962768353e+01 -2.1757867533e+01 -3.6983560448e+01 5.4137698229e+01 1.7770000000e+00 0.0000e+00 -1.0000e+00
       22  1    3    3    0    0 +4.7236121750e+01 -1.0156854876e+01 -6.4292637110e+01 8.0423604033e+01 0.0000000000e+00 0.0000e+00 -1.0000e+00
<mgrwt>
<rscale>  2 0.12500000E+03</rscale>
<asrwt>0</asrwt>
<pdfrwt beam="1">  1       21 0.37962177E-02 0.12500000E+03</pdfrwt>
<pdfrwt beam="2">  1       21 0.22253130E-01 0.12500000E+03</pdfrwt>
<totfact> 0.80246911E+06</totfact>
</mgrwt>
</event>
<event>
 6      0 +9.8758382e+01 1.25000000e+02 7.54677100e-03 1.12640300e-01
       21 -1    0    0  502  501 +0.0000000000e+00 +0.0000000000e+00 +2.8411570990e+01 2.8411570990e+01 0.0000000000e+00 0.0000e+00 1.0000e+00
       21 -1    0    0  501  502 -0.0000000000e+00 -0.0000000000e+00 -1.3748799746e+02 1.3748799746e+02 0.0000000000e+00 0.0000e+00 1.0000e+00
       25  2    1    2    0    0 +0.0000000000e+00 +0.0000000000e+00 -1.0907642647e+02 1.6589956845e+02 1.2500000000e+02 0.0000e+00 0.0000e+00
      -15  1    3    3    0    0 -2.1890265902e+00 +1.8447726352e+01 -5.1667866105e+00 1.9363983522e+01 1.7770000000e+00 0.0000e+00 -1.0000e+00
       15  1    3    3    0    0 -6.9122162903e+00 +3.4236084563e+01 -6.7211094409e+00 3.5612066233e+01 1.7770000000e+00 0.0000e+00 -1.0000e+00
       22  1    3    3    0    0 +9.1012428805e+00 -5.2683810915e+01 -9.7188530417e+01 1.1092351869e+02 0.0000000000e+00 0.0000e+00 -1.0000e+00
<mgrwt>
<rscale>  2 0.12500000E+03</rscale>
<asrwt>0</asrwt>
<pdfrwt beam="1">  1       21 0.41781722E-02 0.12500000E+03</pdfrwt>
<pdfrwt beam="2">  1       21 0.20218823E-01 0.12500000E+03</pdfrwt>
<totfact> 0.82020668E+06</totfact>
</mgrwt>
</event>
<event>
 6      0 +9.8758382e+01 1.25000000e+02 7.54677100e-03 1.12640300e-01
       21 -1    0    0  502  501 +0.0000000000e+00 +0.0000000000e+00 +3.2323276515e+01 3.2323276515e+01 0.0000000000e+00 0.0000e+00 -1.0000e+00
       21 -1    0    0  501  502 -0.0000000000e+00 -0.0000000000e+00 -1.2084944415e+02 1.2084944415e+02 0.0000000000e+00 0.0000e+00 -1.0000e+00
       25  2    1    2    0    0 +0.0000000000e+00 +0.0000000000e+00 -8.8526167638e+01 1.5317272067e+02 1.2500000000e+02 0.0000e+00 0.0000e+00
      -15  1    3    3    0    0 -4.5403193606e+01 -2.5928721261e+01 -5.2666421277e+01 7.4233807898e+01 1.7770000000e+00 0.0000e+00 -1.0000e+00
       15  1    3    3    0    0 +3.2228424948e+01 -8.5021960233e+00 -1.8920509754e+01 3.8367983140e+01 1.7770000000e+00 0.0000e+00 -1.0000e+00
       22  1    3    3    0    0 +1.3174768658e+01 +3.4430917284e+01 -1.6939236606e+01 4.0570929630e+01 0.0000000000e+00 0.0000e+00 -1.0000e+00
<mgrwt>
<rscale>  2 0.12500000E+03</rscale>
<asrwt>0</asrwt>
<pdfrwt beam="1">  1       21 0.47534231E-02 0.12500000E+03</pdfrwt>
<pdfrwt beam="2">  1       21 0.17771977E-01 0.12500000E+03</pdfrwt>
<totfact> 0.84096862E+06</totfact>
</mgrwt>
</event>
<event>
 6      0 +9.8758382e+01 1.25000000e+02 7.54677100e-03 1.12640300e-01
       21 -1    0    0  502  501 +0.0000000000e+00 +0.0000000000e+00 +2.6679705977e+01 2.6679705977e+01 0.0000000000e+00 0.0000e+00 1.0000e+00
       21 -1    0    0  501  502 -0.0000000000e+00 -0.0000000000e+00 -1.4641278293e+02 1.4641278293e+02 0.0000000000e+00 0.0000e+00 1.0000e+00
       25  2    1    2    0    0 +0.0000000000e+00 +0.0000000000e+00 -1.1973307696e+02 1.7309248891e+02 1.2500000000e+02 0.0000e+00 0.0000e+00
      -15  1    3    3    0    0 +8.3818835133e+00 +2.5868042232e+00 +5.5030531503e+00 1.0506609838e+01 1.7770000000e+00 0.0000e+00 -1.0000e+00
       15  1    3    3    0    0 -5.1350244434e+01 -2.1895674768e+01 -5.8310843496e+01 8.0743918503e+01 1.7770000000e+00 0.0000e+00 -1.0000e+00
       22  1    3    3    0    0 +4.2968360921e+01 +1.9308870545e+01 -6.6925286618e+01 8.1841960576e+01 0.0000000000e+00 0.0000e+00 -1.0000e+00
<mgrwt>
<rscale>  2 0.12500000E+03</rscale>
<asrwt>0</asrwt>
<pdfrwt beam="1">  1       21 0.39234863E-02 0.12500000E+03</pdfrwt>
<pdfrwt beam="2">  1       21 0.21531291E-01 0.12500000E+03</pdfrwt>
<totfact> 0.80876290E+06</totfact>
</mgrwt>
</event>
<event>
 6      0 +9.8758382e+01 1.25000000e+02 7.54677100e-03 1.12640300e-01
       21 -1    0    0  502  501 +0.0000000000e+00 +0.0000000000e+00 +1.3185476455e+02 1.3185476455e+02 0.0000000000e+00 0.0000e+00 -1.0000e+00
       21 -1    0    0  501  502 -0.0000000000e+00 -0.0000000000e+00 -2.9625398925e+01 2.9625398925e+01 0.0000000000e+00 0.0000e+00 -1.0000e+00
       25  2    1    2    0    0 +0.0000000000e+00 +0.0000000000e+00 +1.0222936563e+02 1.6148016348e+02 1.2500000000e+02 0.0000e+00 0.0000e+00
      -15  1    3    3    0    0 +2.7762575640e+00 +2.7204251906e+01 +1.4569574209e+01 3.1035610990e+01 1.7770000000e+00 0.0000e+00 -1.0000e+00
       15  1    3    3    0    0 +3.3172286629e+01 -4.2879867267e+01 +6.6718449628e+01 8.5986003901e+01 1.7770000000e+00 0.0000e+00 -1.0000e+00
       22  1    3    3    0    0 -3.5948544193e+01 +1.5675615360e+01 +2.0941341791e+01 4.4458548588e+01 0.0000000000e+00 0.0000e+00 -1.0000e+00
<mgrwt>
<rscale>  2 0.12500000E+03</rscale>
<asrwt>0</asrwt>
<pdfrwt beam="1">  1       21 0.19390406E-01 0.12500000E+03</pdfrwt>
<pdfrwt beam="2">  1       21 0.43566764E-02 0.12500000E+03</pdfrwt>
<totfact> 0.82737810E+06</totfact>
</mgrwt>
</event>
<event>
 6      0 +9.8758382e+01 1.25000000e+02 7.54677100e-03 1.12640300e-01
       21 -1    0    0  502  501 +0.0000000000e+00 +0.0000000000e+00 +1.3966505511e+02 1.3966505511e+02 0.0000000000e+00 0.0000e+00 1.0000e+00
       21 -1    0    0  501  502 -0.0000000000e+00 -0.0000000000e+00 -2.7968699808e+01 2.7968699808e+01 0.0000000000e+00 0.0000e+00 1.0000e+00
       25  2    1    2    0    0 +0.0000000000e+00 +0.0000000000e+00 +1.1169635530e+02 1.6763375492e+02 1.2500000000e+02 0.0000e+00 0.0000e+00
      -15  1    3    3    0    0 -3.4019858212e+01 +1.2987726526e+01 +3.2107671596e+01 4.8580779095e+01 1.7770000000e+00 0.0000e+00 -1.0000e+00
       15  1    3    3    0    0 +5.0699958365e+01 -3.8829487971e+00 +1.7002188514e+01 5.3645085635e+01 1.7770000000e+00 0.0000e+00 -1.0000e+00
       22  1    3    3    0    0 -1.6680100152e+01 -9.1047777294e+00 +6.2586495186e+01 6.5407890183e+01 0.0000000000e+00 0.0000e+00 -1.0000e+00
<mgrwt>
<rscale>  2 0.12500000E+03</rscale>
<asrwt>0</asrwt>
<pdfrwt beam="1">  1       21 0.20538978E-01 0.12500000E+03</pdfrwt>
<pdfrwt beam="2">  1       21 0.41130441E-02 0.12500000E+03</pdfrwt>
<totfact> 0.81741649E+06</totfact>
</mgrwt>
</event>
<event>
 6      0 +9.8758382e+01 1.25000000e+02 7.54677100e-03 1.12640300e-01
       21 -1    0    0  502  501 +0.0000000000e+00 +0.0000000000e+00 +1.3558524868e+02 1.3558524868e+02 0.0000000000e+00 0.0000e+00 -1.0000e+00
       21 -1    0    0  501  502 -0.0000000000e+00 -0.0000000000e+00 -2.8810287535e+01 2.8810287535e+01 0.0000000000e+00 0.0000e+00 -1.0000e+00
       25  2    1    2    0    0 +0.0000000000e+00 +0.0000000000e+00 +1.0677496115e+02 1.6439553622e+02 1.2500000000e+02 0.0000e+00 0.0000e+00
      -15  1    3    3    0    0 +3.5708171375e+01 -1.4104241945e+01 +8.2941199034e+01 9.1413365380e+01 1.7770000000e+00 0.0000e+00 -1.0000e+00
       15  1    3    3    0    0 -1.5924975361e+01 -5.2197879375e+00 +3.8248053412e+01 4.1796200128e+01 1.7770000000e+00 0.0000e+00 -1.0000e+00
       22  1    3    3    0    0 -1.9783196014e+01 +1.9324029883e+01 -1.4414291298e+01 3.1185970709e+01 0.0000000000e+00 0.0000e+00 -1.0000e+00
<mgrwt>
<rscale>  2 0.12500000E+03</rscale>
<asrwt>0</asrwt>
<pdfrwt beam="1">  1       21 0.19939007E-01 0.12500000E+03</pdfrwt>
<pdfrwt beam="2">  1       21 0.42368070E-02 0.12500000E+03</pdfrwt>
<totfact> 0.82264274E+06</totfact>
</mgrwt>
</event>
<event>
 6      0 +9.8758382e+01 1.25000000e+02 7.54677100e-03 1.12640300e-01
       21 -1    0    0  502  501 +0.0000000000e+00 +0.0000000000e+00 +1.3092526782e+01 1.3092526782e+01 0.0000000000e+00 0.0000e+00 1.0000e+00
       21 -1    0    0  501  502 -0.0000000000e+00 -0.0000000000e+00 -2.9835722814e+02 2.9835722814e+02 0.0000000000e+00 0.0000e+00 1.0000e+00
       25  2    1    2    0    0 +0.0000000000e+00 +0.0000000000e+00 -2.8526470136e+02 3.1144975492e+02 1.2500000000e+02 0.0000e+00 0.0000e+00
      -15  1    3    3    0    0 +9.1173570380e+00 -2.3184073830e+01 -9.2592756893e+01 9.5902053350e+01 1.7770000000e+00 0.0000e+00 -1.0000e+00
       15  1    3    3    0    0 -1.4474920156e+01 +2.2770716849e+01 -2.0252630584e+02 2.0432349631e+02 1.7770000000e+00 0.0000e+00 -1.0000e+00
       22  1    3    3    0    0 +5.3575631175e+00 +4.1335698072e-01 +9.8543613520e+00 1.1224205280e+01 0.0000000000e+00 0.0000e+00 -1.0000e+00
<mgrwt>
<rscale>  2 0.12500000E+03</rscale>
<asrwt>0</asrwt>
<pdfrwt beam="1">  1       21 0.19253715E-02 0.12500000E+03</pdfrwt>
<pdfrwt beam="2">  1       21 0.43876065E-01 0.12500000E+03</pdfrwt>
<totfact> 0.62652448E+06</totfact>
</mgrwt>
</event>
<event>
 6      0 +9.8758382e+01 1.25000000e+02 7.54677100e-03 1.12640300e-01
       21 -1    0    0  502  501 +0.0000000000e+00 +0.0000000000e+00 +2.7303474802e+01 2.7303474802e+01 0.0000000000e+00 0.0000e+00 -1.0000e+00
       21 -1    0    0  501  502 -0.0000000000e+00 -0.0000000000e+00 -1.4306787060e+02 1.4306787060e+02 0.0000000000e+00 0.0000e+00 -1.0000e+00
       25  2    1    2    0    0 +0.0000000000e+00 +0.0000000000e+00 -1.1576439580e+02 1.7037134541e+02 1.2500000000e+02 0.0000e+00 0.0000e+00
      -15  1    3    3    0    0 -2.9453383718e+01 +3.5188541365e+01 -8.7527479485e+01 9.8843070823e+01 1.7770000000e+00 0.0000e+00 -1.0000e+00
       15  1    3    3    0    0 -6.8757831933e+00 +6.3197569513e+00 -9.0502745594e+00 1.3125582694e+01 1.7770000000e+00 0.0000e+00 -1.0000e+00
       22  1    3    3    0    0 +3.6329166911e+01 -4.1508298316e+01 -1.9186641750e+01 5.8402691884e+01 0.0000000000e+00 0.0000e+00 -1.0000e+00
<mgrwt>
<rscale>  2 0.12500000E+03</rscale>
<asrwt>0</asrwt>
<pdfrwt beam="1">  1       21 0.40152169E-02 0.12500000E+03</pdfrwt>
<pdfrwt beam="2">  1       21 0.21039393E-01 0.12500000E+03</pdfrwt>
<totfact> 0.81305300E+06</totfact>
</mgrwt>
</event>
<event>
 6      0 +9.8758382e+01 1.25000000e+02 7.54677100e-03 1.12640300e-01
       21 -1    0    0  502  501 +0.0000000000e+00 +0.0000000000e+00 +4.6668184693e+02 4.6668184693e+02 0.0000000000e+00 0.0000e+00 1.0000e+00
       21 -1    0    0  501  502 -0.0000000000e+00 -0.0000000000e+00 -8.3702634369e+00 8.3702634369e+00 0.0000000000e+00 0.0000e+00 1.0000e+00
       25  2    1    2    0    0 +0.0000000000e+00 +0.0000000000e+00 +4.5831158349e+02 4.7505211036e+02 1.2500000000e+02 0.0000e+00 0.0000e+00
      -15  1    3    3    0    0 -7.1933407031e+00 -3.6515922019e+01 +1.3835252059e+02 1.4328201002e+02 1.7770000000e+00 0.0000e+00 -1.0000e+00
       15  1    3    3    0    0 -3.3290400425e+01 +1.1501072171e+00 +1.4223648765e+02 1.4609568664e+02 1.7770000000e+00 0.0000e+00 -1.0000e+00
       22  1    3    3    0    0 +4.0483741129e+01 +3.5365814802e+01 +1.7772257530e+02 1.8567441376e+02 0.0000000000e+00 0.0000e+00 -1.0000e+00
<mgrwt>
<rscale>  2 0.12500000E+03</rscale>
<asrwt>0</asrwt>
<pdfrwt beam="1">  1       21 0.68629666E-01 0.12500000E+03</pdfrwt>
<pdfrwt beam="2">  1       21 0.12309214E-02 0.12500000E+03</pdfrwt>
<totfact> 0.47241998E+06</totfact>
</mgrwt>
</event>
<event>
 6      0 +9.8758382e+01 1.25000000e+02 7.54677100e-03 1.12640300e-01
       21 -1    0    0  502  501 +0.0000000000e+00 +0.0000000000e+00 +1.4077467664e+02 1.4077467664e+02 0.0000000000e+00 0.0000e+00 -1.0000e+00
       21 -1    0    0  501  502 -0.0000000000e+00 -0.0000000000e+00 -2.7748243458e+01 2.7748243458e+01 0.0000000000e+00 0.0000e+00 -1.0000e+00
       25  2    1    2    0    0 +0.0000000000e+00 +0.0000000000e+00 +1.1302643318e+02 1.6852292009e+02 1.2500000000e+02 0.0000e+00 0.0000e+00
      -15  1    3    3    0    0 +3.1474693463e+00 +6.2386893745e+00 +2.5661656866e+01 2.6655321617e+01 1.7770000000e+00 0.0000e+00 -1.0000e+00
       15  1    3    3    0    0 +3.9705238733e+01 +3.4480749770e+01 +3.9142461626e+01 6.5579860618e+01 1.7770000000e+00 0.0000e+00 -1.0000e+00
       22  1    3    3    0    0 -4.2852708080e+01 -4.0719439144e+01 +4.8222314694e+01 7.6287737864e+01 0.0000000000e+00 0.0000e+00 -1.0000e+00
<mgrwt>
<rscale>  2 0.12500000E+03</rscale>
<asrwt>0</asrwt>
<pdfrwt beam="1">  1       21 0.20702158E-01 0.12500000E+03</pdfrwt>
<pdfrwt beam="2">  1       21 0.40806241E-02 0.12500000E+03</pdfrwt>
<totfact> 0.81599382E+06</totfact>
</mgrwt>
</event>
<event>
 6      0 +9.8758382e+01 1.25000000e+02 7.54677100e-03 1.12640300e-01
       21 -1    0    0  502  501 +0.0000000000e+00 +0.0000000000e+00 +3.1546376711e+02 3.1546376711e+02 0.0000000000e+00 0.0000e+00 -1.0000e+00
       21 -1    0    0  501  502 -0.0000000000e+00 -0.0000000000e+00 -1.2382563093e+01 1.2382563093e+01 0.0000000000e+00 0.0000e+00 -1.0000e+00
       25  2    1    2    0    0 +0.0000000000e+00 +0.0000000000e+00 +3.0308120402e+02 3.2784633021e+02 1.2500000000e+02 0.0000e+00 0.0000e+00
      -15  1    3    3    0    0 -4.4886586270e+00 +3.7811158278e+01 +8.0597747523e+01 8.9157088228e+01 1.7770000000e+00 0.0000e+00 -1.0000e+00
       15  1    3    3    0    0 +4.0458372868e+01 -2.5847955549e+01 +1.3693979757e+02 1.4512292248e+02 1.7770000000e+00 0.0000e+00 -1.0000e+00
       22  1    3    3    0    0 -3.5969714241e+01 -1.1963202728e+01 +8.5543658904e+01 9.3566319479e+01 0.0000000000e+00 0.0000e+00 -1.0000e+00
<mgrwt>
<rscale>  2 0.12500000E+03</rscale>
<asrwt>0</asrwt>
<pdfrwt beam="1">  1       21 0.46391725E-01 0.12500000E+03</pdfrwt>
<pdfrwt beam="2">  1       21 0.18209654E-02 0.12500000E+03</pdfrwt>
<totfact> 0.60854412E+06</totfact>
</mgrwt>
</event>
<event>
 6      0 +9.8758382e+01 1.25000000e+02 7.54677100e-03 1.12640300e-01
       21 -1    0    0  502  501 +0.0000000000e+00 +0.0000000000e+00 +1.8684025482e+01 1.8684025482e+01 0.0000000000e+00 0.0000e+00 -1.0000e+00
       21 -1    0    0  501  502 -0.0000000000e+00 -0.0000000000e+00 -2.0906897199e+02 2.0906897199e+02 0.0000000000e+00 0.0000e+00 -1.0000e+00
       25  2    1    2    0    0 +0.0000000000e+00 +0.0000000000e+00 -1.9038494651e+02 2.2775299747e+02 1.2500000000e+02 0.0000e+00 0.0000e+00
      -15  1    3    3    0    0 -1.1288265031e+01 -1.5688830453e+01 -4.3647183987e+01 4.7768176932e+01 1.7770000000e+00 0.0000e+00 -1.0000e+00
       15  1    3    3    0    0 -3.7351593325e+01 -1.5860396602e+01 -3.3041346503e+01 5.2360118526e+01 1.7770000000e+00 0.0000e+00 -1.0000e+00
       22  1    3    3    0    0 +4.8639858355e+01 +3.1549227055e+01 -1.1369641603e+02 1.2762470202e+02 0.0000000000e+00 0.0000e+00 -1.0000e+00
<mgrwt>
<rscale>  2 0.12500000E+03</rscale>
<asrwt>0</asrwt>
<pdfrwt beam="1">  1       21 0.27476508E-02 0.12500000E+03</pdfrwt>
<pdfrwt beam="2">  1       21 0.30745437E-01 0.12500000E+03</pdfrwt>
<totfact> 0.72939628E+06</totfact>
</mgrwt>
</event>
<event>
 6      0 +9.8758382e+01 1.25000000e+02 7.54677100e-03 1.12640300e-01
       21 -1    0    0  502  501 +0.0000000000e+00 +0.0000000000e+00 +4.3065722053e+02 4.3065722053e+02 0.0000000000e+00 0.0000e+00 1.0000e+00
       21 -1    0    0  501  502 -0.0000000000e+00 -0.0000000000e+00 -9.0704388868e+00 9.0704388868e+00 0.0000000000e+00 0.0000e+00 1.0000e+00
       25  2    1    2    0    0 +0.0000000000e+00 +0.0000000000e+00 +4.2158678165e+02 4.3972765942e+02 1.2500000000e+02 0.0000e+00 0.0000e+00
      -15  1    3    3    0    0 -3.5694081311e+01 -2.0913122578e+01 +1.7365990845e+02 1.7852828255e+02 1.7770000000e+00 0.0000e+00 -1.0000e+00
       15  1    3    3    0    0 +2.2213290062e+01 -2.1979932053e+01 +1.5292204093e+02 1.5609245977e+02 1.7770000000e+00 0.0000e+00 -1.0000e+00
       22  1    3    3    0    0 +1.3480791249e+01 +4.2893054631e+01 +9.5004832319e+01 1.0510691715e+02 0.0000000000e+00 0.0000e+00 -1.0000e+00
<mgrwt>
<rscale>  2 0.12500000E+03</rscale>
<asrwt>0</asrwt>
<pdfrwt beam="1">  1       21 0.63331930E-01 0.12500000E+03</pdfrwt>
<pdfrwt beam="2">  1       21 0.13338884E-02 0.12500000E+03</pdfrwt>
<totfact> 0.50138461E+06</totfact>
</mgrwt>
</event>
<event>
 6      0 +9.8758382e+01 1.25000000e+02 7.54677100e-03 1.12640300e-01
       21 -1    0    0  502  501 +0.0000000000e+00 +0.0000000000e+00 +5.0144520386e+01 5.0144520386e+01 0.0000000000e+00 0.0000e+00 1.0000e+00
       21 -1    0    0  501  502 -0.0000000000e+00 -0.0000000000e+00 -7.7899837707e+01 7.7899837707e+01 0.0000000000e+00 0.0000e+00 1.0000e+00
       25  2    1    2    0    0 +0.0000000000e+00 +0.0000000000e+00 -2.7755317321e+01 1.2804435809e+02 1.2500000000e+02 0.0000e+00 0.0000e+00
      -15  1    3    3    0    0 +1.2198557200e+01 -5.8181160558e+00 +1.5200535783e+01 2.0417377140e+01 1.7770000000e+00 0.0000e+00 -1.0000e+00
       15  1    3    3    0    0 +3.9247795064e+01 -1.5675992170e+01 -1.2566562053e+01 4.4127115913e+01 1.7770000000e+00 0.0000e+00 -1.0000e+00
       22  1    3    3    0    0 -5.1446352264e+01 +2.1494108226e+01 -3.0389291052e+01 6.3499865042e+01 0.0000000000e+00 0.0000e+00 -1.0000e+00
<mgrwt>
<rscale>  2 0.12500000E+03</rscale>
<asrwt>0</asrwt>
<pdfrwt beam="1">  1       21 0.73741941E-02 0.12500000E+03</pdfrwt>
<pdfrwt beam="2">  1       21 0.11455859E-01 0.12500000E+03</pdfrwt>
<totfact> 0.88449853E+06</totfact>
</mgrwt>
</event>
<event>
 6      0 +9.8758382e+01 1.25000000e+02 7.54677100e-03 1.12640300e-01
       21 -1    0    0  502  501 +0.0000000000e+00 +0.0000000000e+00 +5.6783411608e+02 5.6783411608e+02 0.0000000000e+00 0.0000e+00 1.0000e+00
       21 -1    0    0  501  502 -0.0000000000e+00 -0.0000000000e+00 -6.8792097716e+00 6.8792097716e+00 0.0000000000e+00 0.0000e+00 1.0000e+00
       25  2    1    2    0    0 +0.0000000000e+00 +0.0000000000e+00 +5.6095490631e+02 5.7471332585e+02 1.2500000000e+02 0.0000e+00 0.0000e+00
      -15  1    3    3    0    0 -1.2188915543e+01 +1.6113964556e+01 +2.3558398090e+01 3.1086739382e+01 1.7770000000e+00 0.0000e+00 -1.0000e+00
       15  1    3    3    0    0 +1.2937385836e+01 -3.2226671834e+01 +9.8920300582e+01 1.0485379309e+02 1.7770000000e+00 0.0000e+00 -1.0000e+00
       22  1    3    3    0    0 -7.4847029222e-01 +1.6112707279e+01 +4.3847620770e+02 4.3877279344e+02 0.0000000000e+00 0.0000e+00 -1.0000e+00
<mgrwt>
<rscale>  2 0.12500000E+03</rscale>
<asrwt>0</asrwt>
<pdfrwt beam="1">  1       21 0.83504985E-01 0.12500000E+03</pdfrwt>
<pdfrwt beam="2">  1       21 0.10116489E-02 0.12500000E+03</pdfrwt>
<totfact> 0.40155930E+06</totfact>
</mgrwt>
</event>
<event>
 6      0 +9.8758382e+01 1.25000000e+02 7.54677100e-03 1.12640300e-01
       21 -1    0    0  502  501 +0.0000000000e+00 +0.0000000000e+00 +3.5441034760e+01 3.5441034760e+01 0.0000000000e+00 0.0000e+00 1.0000e+00
       21 -1    0    0  501  502 -0.0000000000e+00 -0.0000000000e+00 -1.1021828303e+02 1.1021828303e+02 0.0000000000e+00 0.0000e+00 1.0000e+00
       25  2    1    2    0    0 +0.0000000000e+00 +0.0000000000e+00 -7.4777248268e+01 1.4565931779e+02 1.2500000000e+02 0.0000e+00 0.0000e+00
      -15  1    3    3    0    0 +6.2914633868e+00 -1.2790741328e+01 +2.2579385863e+01 2.6761389542e+01 1.7770000000e+00 0.0000e+00 -1.0000e+00
       15  1    3    3    0    0 +1.3076773427e+00 -1.7476185637e+01 -8.2456280082e+01 8.4316801045e+01 1.7770000000e+00 0.0000e+00 -1.0000e+00
       22  1    3    3    0    0 -7.5991407295e+00 +3.0266926965e+01 -1.4900354047e+01 3.4581127201e+01 0.0000000000e+00 0.0000e+00 -1.0000e+00
<mgrwt>
<rscale>  2 0.12500000E+03</rscale>
<asrwt>0</asrwt>
<pdfrwt beam="1">  1       21 0.52119168E-02 0.12500000E+03</pdfrwt>
<pdfrwt beam="2">  1       21 0.16208571E-01 0.12500000E+03</pdfrwt>
<totfact> 0.85361075E+06</totfact>
</mgrwt>
</event>
<event>
 6      0 +9.8758382e+01 1.25000000e+02 7.54677100e-03 1.12640300e-01
       21 -1    0    0  502  501 +0.0000000000e+00 +0.0000000000e+00 +3.9543935963e+00 3.9543935963e+00 0.0000000000e+00 0.0000e+00 1.0000e+00
       21 -1    0    0  501  502 -0.0000000000e+00 -0.0000000000e+00 -9.8782528974e+02 9.8782528974e+02 0.0000000000e+00 0.0000e+00 1.0000e+00
       25  2    1    2    0    0 +0.0000000000e+00 +0.0000000000e+00 -9.8387089615e+02 9.9177968334e+02 1.2500000000e+02 0.0000e+00 0.0000e+00
      -15  1    3    3    0    0 -4.1773673638e+01 -3.5414015198e+00 -4.8723371945e+02 4.8903725465e+02 1.7770000000e+00 0.0000e+00 -1.0000e+00
       15  1    3    3    0    0 -1.0895312362e+01 +1.9698967506e+01 -1.2135196011e+02 1.2343505622e+02 1.7770000000e+00 0.0000e+00 -1.0000e+00
       22  1    3    3    0    0 +5.2668986000e+01 -1.6157565986e+01 -3.7528521674e+02 3.7930737263e+02 0.0000000000e+00 0.0000e+00 -1.0000e+00
<mgrwt>
<rscale>  2 0.12500000E+03</rscale>
<asrwt>0</asrwt>
<pdfrwt beam="1">  1       21 0.58152843E-03 0.12500000E+03</pdfrwt>
<pdfrwt beam="2">  1       21 0.14526844E+00 0.12500000E+03</pdfrwt>
<totfact> 0.21427817E+06</totfact>
</mgrwt>
</event>
<event>
 6      0 +9.8758382e+01 1.25000000e+02 7.54677100e-03 1.12640300e-01
       21 -1    0    0  502  501 +0.0000000000e+00 +0.0000000000e+00 +6.6561060345e+01 6.6561060345e+01 0.0000000000e+00 0.0000e+00 1.0000e+00
       21 -1    0    0  501  502 -0.0000000000e+00 -0.0000000000e+00 -5.8686715322e+01 5.8686715322e+01 0.0000000000e+00 0.0000e+00 1.0000e+00
       25  2    1    2    0    0 +0.0000000000e+00 +0.0000000000e+00 +7.8743450238e+00 1.2524777567e+02 1.2500000000e+02 0.0000e+00 0.0000e+00
      -15  1    3    3    0    0 -9.3021458495e+00 +2.3650342202e+00 +4.6778759965e+01 4.7786330861e+01 1.7770000000e+00 0.0000e+00 -1.0000e+00
       15  1    3    3    0    0 -2.0200984627e+00 +1.7710379696e+00 +1.8513637539e+01 1.8791750243e+01 1.7770000000e+00 0.0000e+00 -1.0000e+00
       22  1    3    3    0    0 +1.1322244312e+01 -4.1360721898e+00 -5.7418052481e+01 5.8669694563e+01 0.0000000000e+00 0.0000e+00 -1.0000e+00
<mgrwt>
<rscale>  2 0.12500000E+03</rscale>
<asrwt>0</asrwt>
<pdfrwt beam="1">  1       21 0.97883912E-02 0.12500000E+03</pdfrwt>
<pdfrwt beam="2">  1       21 0.86303993E-02 0.12500000E+03</pdfrwt>
<totfact> 0.88951409E+06</totfact>
</mgrwt>
</event>
<event>
 6      0 +9.8758382e+01 1.25000000e+02 7.54677100e-03 1.12640300e-01
       21 -1    0    0  502  501 +0.0000000000e+00 +0.0000000000e+00 +8.4700097415e+01 8.4700097415e+01 0.0000000000e+00 0.0000e+00 -1.0000e+00
       21 -1    0    0  501  502 -0.0000000000e+00 -0.0000000000e+00 -4.6118601032e+01 4.6118601032e+01 0.0000000000e+00 0.0000e+00 -1.0000e+00
       25  2    1    2    0    0 +0.0000000000e+00 +0.0000000000e+00 +3.8581496383e+01 1.3081869845e+02 1.2500000000e+02 0.0000e+00 0.0000e+00
      -15  1    3    3    0    0 +1.3484075738e+01 -3.7922300377e+01 +2.5520537506e+01 4.7690425957e+01 1.7770000000e+00 0.0000e+00 -1.0000e+00
       15  1    3    3    0    0 -2.7223714680e+01 +4.7063590678e+01 +2.7720347658e+01 6.1054791882e+01 1.7770000000e+00 0.0000e+00 -1.0000e+00
       22  1    3    3    0    0 +1.3739638943e+01 -9.1412903002e+00 -1.4659388782e+01 2.2073480607e+01 0.0000000000e+00 0.0000e+00 -1.0000e+00
<mgrwt>
<rscale>  2 0.12500000E+03</rscale>
<asrwt>0</asrwt>
<pdfrwt beam="1">  1       21 0.12455897E-01 0.12500000E+03</pdfrwt>
<pdfrwt beam="2">  1       21 0.67821472E-02 0.12500000E+03</pdfrwt>
<totfact> 0.87948900E+06</totfact>
</mgrwt>
</event>
<event>
 6      0 +9.8758382e+01 1.25000000e+02 7.54677100e-03 1.12640300e-01
       21 -1    0    0  502  501 +0.0000000000e+00 +0.0000000000e+00 +6.4064605844e+00 6.4064605844e+00 0.0000000000e+00 0.0000e+00 -1.0000e+00
       21 -1    0    0  501  502 -0.0000000000e+00 -0.0000000000e+00 -6.0973605450e+02 6.0973605450e+02 0.0000000000e+00 0.0000e+00 -1.0000e+00
       25  2    1    2    0    0 +0.0000000000e+00 +0.0000000000e+00 -6.0332959391e+02 6.1614251508e+02 1.2500000000e+02 0.0000e+00 0.0000e+00
      -15  1    3    3    0    0 +9.4941540266e+00 +3.0321253225e+01 -2.5292680344e+02 2.5492085632e+02 1.7770000000e+00 0.0000e+00 -1.0000e+00
       15  1    3    3    0    0 +7.8262140594e-02 +2.9333932755e+00 -3.0035878442e+02 3.0037837477e+02 1.7770000000e+00 0.0000e+00 -1.0000e+00
       22  1    3    3    0    0 -9.5724161671e+00 -3.3254646501e+01 -5.0044006024e+01 6.0843283969e+01 0.0000000000e+00 0.0000e+00 -1.0000e+00
<mgrwt>
<rscale>  2 0.12500000E+03</rscale>
<asrwt>0</asrwt>
<pdfrwt beam="1">  1       21 0.94212678E-03 0.12500000E+03</pdfrwt>
<pdfrwt beam="2">  1       21 0.89667045E-01 0.12500000E+03</pdfrwt>
<totfact> 0.37509548E+06</totfact>
</mgrwt>
</event>
<event>
 6      0 +9.8758382e+01 1.25000000e+02 7.54677100e-03 1.12640300e-01
       21 -1    0    0  502  501 +0.0000000000e+00 +0.0000000000e+00 +1.5339567747e+02 1.5339567747e+02 0.0000000000e+00 0.0000e+00 -1.0000e+00
       21 -1    0    0  501  502 -0.0000000000e+00 -0.0000000000e+00 -2.5465189531e+01 2.5465189531e+01 0.0000000000e+00 0.0000e+00 -1.0000e+00
       25  2    1    2    0    0 +0.0000000000e+00 +0.0000000000e+00 +1.2793048794e+02 1.7886086700e+02 1.2500000000e+02 0.0000e+00 0.0000e+00
      -15  1    3    3    0    0 -3.3568406453e+01 +9.4157560895e+00 +3.7570851537e+01 5.1285680152e+01 1.7770000000e+00 0.0000e+00 -1.0000e+00
       15  1    3    3    0    0 +1.9163341980e+00 -1.2304010334e+01 +9.4668834716e+01 9.5500821999e+01 1.7770000000e+00 0.0000e+00 -1.0000e+00
       22  1    3    3    0    0 +3.1652072254e+01 +2.8882542442e+00 -4.3091983093e+00 3.2074364853e+01 0.0000000000e+00 0.0000e+00 -1.0000e+00
<mgrwt>
<rscale>  2 0.12500000E+03</rscale>
<asrwt>0</asrwt>
<pdfrwt beam="1">  1       21 0.22558188E-01 0.12500000E+03</pdfrwt>
<pdfrwt beam="2">  1       21 0.37448809E-02 0.12500000E+03</pdfrwt>
<totfact> 0.79981066E+06</totfact>
</mgrwt>
</event>
<event>
 6      0 +9.8758382e+01 1.25000000e+02 7.54677100e-03 1.12640300e-01
       21 -1    0    0  502  501 +0.0000000000e+00 +0.0000000000e+00 +4.2502620020e+02 4.2502620020e+02 0.0000000000e+00 0.0000e+00 1.0000e+00
       21 -1    0    0  501  502 -0.0000000000e+00 -0.0000000000e+00 -9.1906098922e+00 9.1906098922e+00 0.0000000000e+00 0.0000e+00 1.0000e+00
       25  2    1    2    0    0 +0.0000000000e+00 +0.0000000000e+00 +4.1583559031e+02 4.3421681009e+02 1.2500000000e+02 0.0000e+00 0.0000e+00
      -15  1    3    3    0    0 -2.3461323631e+01 +5.2962997561e+00 +1.1072710409e+02 1.1332313889e+02 1.7770000000e+00 0.0000e+00 -1.0000e+00
       15  1    3    3    0    0 -2.4158881118e+01 +1.0644717411e+01 +2.2358081812e+02 2.2514107023e+02 1.7770000000e+00 0.0000e+00 -1.0000e+00
       22  1    3    3    0    0 +4.7620204749e+01 -1.5941017168e+01 +8.1527668144e+01 9.5752601017e+01 0.0000000000e+00 0.0000e+00 -1.0000e+00
<mgrwt>
<rscale>  2 0.12500000E+03</rscale>
<asrwt>0</asrwt>
<pdfrwt beam="1">  1       21 0.62503840E-01 0.12500000E+03</pdfrwt>
<pdfrwt beam="2">  1       21 0.13515606E-02 0.12500000E+03</pdfrwt>
<totfact> 0.50608919E+06</totfact>
</mgrwt>
</event>
<event>
 6      0 +9.8758382e+01 1.25000000e+02 7.54677100e-03 1.12640300e-01
       21 -1    0    0  502  501 +0.0000000000e+00 +0.0000000000e+00 +1.6915863071e+01 1.6915863071e+01 0.0000000000e+00 0.0000e+00 1.0000e+00
       21 -1    0    0  501  502 -0.0000000000e+00 -0.0000000000e+00 -2.3092229960e+02 2.3092229960e+02 0.0000000000e+00 0.0000e+00 1.0000e+00
       25  2    1    2    0    0 +0.0000000000e+00 +0.0000000000e+00 -2.1400643653e+02 2.4783816267e+02 1.2500000000e+02 0.0000e+00 0.0000e+00
      -15  1    3    3    0    0 +2.7225786989e+01 +4.9527757115e+00 -8.7797237650e+01 9.2072178928e+01 1.7770000000e+00 0.0000e+00 -1.0000e+00
       15  1    3    3    0    0 -3.8053991847e+01 +1.1427521565e+01 -1.4482982598e+01 4.2327403163e+01 1.7770000000e+00 0.0000e+00 -1.0000e+00
       22  1    3    3    0    0 +1.0828204858e+01 -1.6380297277e+01 -1.1172621628e+02 1.1343858058e+02 0.0000000000e+00 0.0000e+00 -1.0000e+00
<mgrwt>
<rscale>  2 0.12500000E+03</rscale>
<asrwt>0</asrwt>
<pdfrwt beam="1">  1       21 0.24876272E-02 0.12500000E+03</pdfrwt>
<pdfrwt beam="2">  1       21 0.33959158E-01 0.12500000E+03</pdfrwt>
<totfact> 0.70281884E+06</totfact>
</mgrwt>
</event>
<event>
 6      0 +9.8758382e+01 1.25000000e+02 7.54677100e-03 1.12640300e-01
       21 -1    0    0  502  501 +0.0000000000e+00 +0.0000000000e+00 +1.0187735328e+03 1.0187735328e+03 0.0000000000e+00 0.0000e+00 -1.0000e+00
       21 -1    0    0  501  502 -0.0000000000e+00 -0.0000000000e+00 -3.8342672580e+00 3.8342672580e+00 0.0000000000e+00 0.0000e+00 -1.0000e+00
       25  2    1    2    0    0 +0.0000000000e+00 +0.0000000000e+00 +1.0149392655e+03 1.0226078000e+03 1.2500000000e+02 0.0000e+00 0.0000e+00
      -15  1    3    3    0    0 -2.5455073490e+01 +2.1908587463e+01 +1.9457523447e+02 1.9746044305e+02 1.7770000000e+00 0.0000e+00 -1.0000e+00
       15  1    3    3    0    0 +7.5285387482e+00 -3.8138242610e+01 +1.7261775920e+02 1.7694986003e+02 1.7770000000e+00 0.0000e+00 -1.0000e+00
       22  1    3    3    0    0 +1.7926534742e+01 +1.6229655147e+01 +6.4774627289e+02 6.4819749799e+02 0.0000000000e+00 0.0000e+00 -1.0000e+00
<mgrwt>
<rscale>  2 0.12500000E+03</rscale>
<asrwt>0</asrwt>
<pdfrwt beam="1">  1       21 0.14981945E+00 0.12500000E+03</pdfrwt>
<pdfrwt beam="2">  1       21 0.56386354E-03 0.12500000E+03</pdfrwt>
<totfact> 0.20513564E+06</totfact>
</mgrwt>
</event>
<event>
 6      0 +9.8758382e+01 1.25000000e+02 7.54677100e-03 1.12640300e-01
       21 -1    0    0  502  501 +0.0000000000e+00 +0.0000000000e+00 +3.9685827945e+01 3.9685827945e+01 0.0000000000e+00 0.0000e+00 -1.0000e+00
       21 -1    0    0  501  502 -0.0000000000e+00 -0.0000000000e+00 -9.8429343730e+01 9.8429343730e+01 0.0000000000e+00 0.0000e+00 -1.0000e+00
       25  2    1    2    0    0 +0.0000000000e+00 +0.0000000000e+00 -5.8743515784e+01 1.3811517167e+02 1.2500000000e+02 0.0000e+00 0.0000e+00
      -15  1    3    3    0    0 -4.2582352462e+00 +1.6287951723e+01 -3.4596700450e+01 3.8516481534e+01 1.7770000000e+00 0.0000e+00 -1.0000e+00
       15  1    3    3    0    0 +1.0808659707e+01 +3.6970300074e+01 +4.4155322050e+00 3.8810885920e+01 1.7770000000e+00 0.0000e+00 -1.0000e+00
       22  1    3    3    0    0 -6.5504244609e+00 -5.3258251797e+01 -2.8562347543e+01 6.0787804223e+01 0.0000000000e+00 0.0000e+00 -1.0000e+00
<mgrwt>
<rscale>  2 0.12500000E+03</rscale>
<asrwt>0</asrwt>
<pdfrwt beam="1">  1       21 0.58361512E-02 0.12500000E+03</pdfrwt>
<pdfrwt beam="2">  1       21 0.14474903E-01 0.12500000E+03</pdfrwt>
<totfact> 0.86665477E+06</totfact>
</mgrwt>
</event>
<event>
 6      0 +9.8758382e+01 1.25000000e+02 7.54677100e-03 1.12640300e-01
       21 -1    0    0  502  501 +0.0000000000e+00 +0.0000000000e+00 +2.2700733171e+01 2.2700733171e+01 0.0000000000e+00 0.0000e+00 -1.0000e+00
       21 -1    0    0  501  502 -0.0000000000e+00 -0.0000000000e+00 -1.7207594004e+02 1.7207594004e+02 0.0000000000e+00 0.0000e+00 -1.0000e+00
       25  2    1    2    0    0 +0.0000000000e+00 +0.0000000000e+00 -1.4937520687e+02 1.9477667321e+02 1.2500000000e+02 0.0000e+00 0.0000e+00
      -15  1    3    3    0    0 -1.5638185979e+01 +1.8823312410e+01 -7.0256037352e+01 7.4417326371e+01 1.7770000000e+00 0.0000e+00 -1.0000e+00
       15  1    3    3    0    0 -3.6048284211e+01 -1.7694769802e+00 -3.4838769680e+01 5.0194695389e+01 1.7770000000e+00 0.0000e+00 -1.0000e+00
       22  1    3    3    0    0 +5.1686470191e+01 -1.7053835430e+01 -4.4280399842e+01 7.0164651455e+01 0.0000000000e+00 0.0000e+00 -1.0000e+00
<mgrwt>
<rscale>  2 0.12500000E+03</rscale>
<asrwt>0</asrwt>
<pdfrwt beam="1">  1       21 0.33383430E-02 0.12500000E+03</pdfrwt>
<pdfrwt beam="2">  1       21 0.25305286E-01 0.12500000E+03</pdfrwt>
<totfact> 0.77587646E+06</totfact>
</mgrwt>
</event>
<event>
 6      0 +9.8758382e+01 1.25000000e+02 7.54677100e-03 1.12640300e-01
       21 -1    0    0  502  501 +0.0000000000e+00 +0.0000000000e+00 +1.8012202665e+02 1.8012202665e+02 0.0000000000e+00 0.0000e+00 1.0000e+00
       21 -1    0    0  501  502 -0.0000000000e+00 -0.0000000000e+00 -2.1686686923e+01 2.1686686923e+01 0.0000000000e+00 0.0000e+00 1.0000e+00
       25  2    1    2    0    0 +0.0000000000e+00 +0.0000000000e+00 +1.5843533973e+02 2.0180871358e+02 1.2500000000e+02 0.0000e+00 0.0000e+00
      -15  1    3    3    0    0 +4.2926653202e+01 -3.9653159135e+00 +8.9498857680e+01 9.9356049341e+01 1.7770000000e+00 0.0000e+00 -1.0000e+00
       15  1    3    3    0    0 -1.0612422857e+01 +1.2564948492e+01 -8.1387022719e+00 1.8436313439e+01 1.7770000000e+00 0.0000e+00 -1.0000e+00
       22  1    3    3    0    0 -3.2314230345e+01 -8.5996325783e+00 +7.7075184314e+01 8.4016350791e+01 0.0000000000e+00 0.0000e+00 -1.0000e+00
<mgrwt>
<rscale>  2 0.12500000E+03</rscale>
<asrwt>0</asrwt>
<pdfrwt beam="1">  1       21 0.26488533E-01 0.12500000E+03</pdfrwt>
<pdfrwt beam="2">  1       21 0.31892188E-02 0.12500000E+03</pdfrwt>
<totfact> 0.76555800E+06</totfact>
</mgrwt>
</event>
<event>
 6      0 +9.8758382e+01 1.25000000e+02 7.54677100e-03 1.12640300e-01
       21 -1    0    0  502  501 +0.0000000000e+00 +0.0000000000e+00 +1.9838771879e+03 1.9838771879e+03 0.0000000000e+00 0.0000e+00 -1.0000e+00
       21 -1    0    0  501  502 -0.0000000000e+00 -0.0000000000e+00 -1.9689978916e+00 1.9689978916e+00 0.0000000000e+00 0.0000e+00 -1.0000e+00
       25  2    1    2    0    0 +0.0000000000e+00 +0.0000000000e+00 +1.9819081900e+03 1.9858461858e+03 1.2500000000e+02 0.0000e+00 0.0000e+00
      -15  1    3    3    0    0 +5.7548901020e+01 +1.3604197151e+01 +8.0215622456e+02 8.0433495294e+02 1.7770000000e+00 0.0000e+00 -1.0000e+00
       15  1    3    3    0    0 +1.6352333809e+00 +3.0273207716e-01 +1.1445460604e+02 1.1448047960e+02 1.7770000000e+00 0.0000e+00 -1.0000e+00
       22  1    3    3    0    0 -5.9184134400e+01 -1.3906929229e+01 +1.0652973551e+03 1.0670307490e+03 0.0000000000e+00 0.0000e+00 -1.0000e+00
<mgrwt>
<rscale>  2 0.12500000E+03</rscale>
<asrwt>0</asrwt>
<pdfrwt beam="1">  1       21 0.29174525E+00 0.12500000E+03</pdfrwt>
<pdfrwt beam="2">  1       21 0.28955990E-03 0.12500000E+03</pdfrwt>
<totfact> 0.54972139E+05</totfact>
</mgrwt>
</event>
<event>
 6      0 +9.8758382e+01 1.25000000e+02 7.54677100e-03 1.12640300e-01
       21 -1    0    0  502  501 +0.0000000000e+00 +0.0000000000e+00 +1.5509987383e+02 1.5509987383e+02 0.0000000000e+00 0.0000e+00 1.0000e+00
       21 -1    0    0  501  502 -0.0000000000e+00 -0.0000000000e+00 -2.5185384769e+01 2.5185384769e+01 0.0000000000e+00 0.0000e+00 1.0000e+00
       25  2    1    2    0    0 +0.0000000000e+00 +0.0000000000e+00 +1.2991448906e+02 1.8028525860e+02 1.2500000000e+02 0.0000e+00 0.0000e+00
      -15  1    3    3    0    0 -3.9026226164e-01 -5.3936656798e+01 +3.4783498640e+01 6.4205644283e+01 1.7770000000e+00 0.0000e+00 -1.0000e+00
       15  1    3    3    0    0 -8.4337293500e+00 +2.8691078979e+01 +7.9835752835e+01 8.5271395927e+01 1.7770000000e+00 0.0000e+00 -1.0000e+00
       22  1    3    3    0    0 +8.8239916116e+00 +2.5245577819e+01 +1.5295237581e+01 3.0808218385e+01 0.0000000000e+00 0.0000e+00 -1.0000e+00
<mgrwt>
<rscale>  2 0.12500000E+03</rscale>
<asrwt>0</asrwt>
<pdfrwt beam="1">  1       21 0.22808804E-01 0.12500000E+03</pdfrwt>
<pdfrwt beam="2">  1       21 0.37037331E-02 0.12500000E+03</pdfrwt>
<totfact> 0.79762745E+06</totfact>
</mgrwt>
</event>
<event>
 6      0 +9.8758382e+01 1.25000000e+02 7.54677100e-03 1.12640300e-01
       21 -1    0    0  502  501 +0.0000000000e+00 +0.0000000000e+00 +1.4384243848e+01 1.4384243848e+01 0.0000000000e+00 0.0000e+00 1.0000e+00
       21 -1    0    0  501  502 -0.0000000000e+00 -0.0000000000e+00 -2.7156450079e+02 2.7156450079e+02 0.0000000000e+00 0.0000e+00 1.0000e+00
       25  2    1    2    0    0 +0.0000000000e+00 +0.0000000000e+00 -2.5718025695e+02 2.8594874464e+02 1.2500000000e+02 0.0000e+00 0.0000e+00
      -15  1    3    3    0    0 -1.6729615493e+00 +3.3566877641e+01 -1.5224310409e+02 1.5591874341e+02 1.7770000000e+00 0.0000e+00 -1.0000e+00
       15  1    3    3    0    0 +6.8756405126e+00 -5.3294406491e+01 -8.9648932440e+01 1.0453543424e+02 1.7770000000e+00 0.0000e+00 -1.0000e+00
       22  1    3    3    0    0 -5.2026789633e+00 +1.9727528850e+01 -1.5288220449e+01 2.5494567019e+01 0.0000000000e+00 0.0000e+00 -1.0000e+00
<mgrwt>
<rscale>  2 0.12500000E+03</rscale>
<asrwt>0</asrwt>
<pdfrwt beam="1">  1       21 0.21153302E-02 0.12500000E+03</pdfrwt>
<pdfrwt beam="2">  1       21 0.39935952E-01 0.12500000E+03</pdfrwt>
<totfact> 0.65585763E+06</totfact>
</mgrwt>
</event>
<event>
 6      0 +9.8758382e+01 1.25000000e+02 7.54677100e-03 1.12640300e-01
       21 -1    0    0  502  501 +0.0000000000e+00 +0.0000000000e+00 +9.3950310230e+01 9.3950310230e+01 0.0000000000e+00 0.0000e+00 -1.0000e+00
       21 -1    0    0  501  502 -0.0000000000e+00 -0.0000000000e+00 -4.1577829711e+01 4.1577829711e+01 0.0000000000e+00 0.0000e+00 -1.0000e+00
       25  2    1    2    0    0 +0.0000000000e+00 +0.0000000000e+00 +5.2372480519e+01 1.3552813994e+02 1.2500000000e+02 0.0000e+00 0.0000e+00
      -15  1    3    3    0    0 +1.4827390436e+01 +2.0074658774e+01 -1.5612727936e+01 2.9491667207e+01 1.7770000000e+00 0.0000e+00 -1.0000e+00
       15  1    3    3    0    0 -9.9198670776e+00 -4.2217718419e+01 +7.0939657286e+01 8.3164488913e+01 1.7770000000e+00 0.0000e+00 -1.0000e+00
       22  1    3    3    0    0 -4.9075233586e+00 +2.2143059646e+01 -2.9544488306e+00 2.2871983820e+01 0.0000000000e+00 0.0000e+00 -1.0000e+00
<mgrwt>
<rscale>  2 0.12500000E+03</rscale>
<asrwt>0</asrwt>
<pdfrwt beam="1">  1       21 0.13816222E-01 0.12500000E+03</pdfrwt>
<pdfrwt beam="2">  1       21 0.61143867E-02 0.12500000E+03</pdfrwt>
<totfact> 0.87113662E+06</totfact>
</mgrwt>
</event>
<event>
 6      0 +9.8758382e+01 1.25000000e+02 7.54677100e-03 1.12640300e-01
       21 -1    0    0  502  501 +0.0000000000e+00 +0.0000000000e+00 +1.1085041103e+02 1.1085041103e+02 0.0000000000e+00 0.0000e+00 1.0000e+00
       21 -1    0    0  501  502 -0.0000000000e+00 -0.0000000000e+00 -3.5238931129e+01 3.5238931129e+01 0.0000000000e+00 0.0000e+00 1.0000e+00
       25  2    1    2    0    0 +0.0000000000e+00 +0.0000000000e+00 +7.5611479902e+01 1.4608934216e+02 1.2500000000e+02 0.0000e+00 0.0000e+00
      -15  1    3    3    0    0 -1.5497070373e+01 -4.3227461953e+01 +4.3313190719e+01 6.3150319684e+01 1.7770000000e+00 0.0000e+00 -1.0000e+00
       15  1    3    3    0    0 -4.0750699485e-01 -5.2454808885e+00 -1.3364564612e+01 1.4472402977e+01 1.7770000000e+00 0.0000e+00 -1.0000e+00
       22  1    3    3    0    0 +1.5904577368e+01 +4.8472942841e+01 +4.5662853795e+01 6.8466619499e+01 0.0000000000e+00 0.0000e+00 -1.0000e+00
<mgrwt>
<rscale>  2 0.12500000E+03</rscale>
<asrwt>0</asrwt>
<pdfrwt beam="1">  1       21 0.16301531E-01 0.12500000E+03</pdfrwt>
<pdfrwt beam="2">  1       21 0.51821958E-02 0.12500000E+03</pdfrwt>
<totfact> 0.85287474E+06</totfact>
</mgrwt>
</event>
<event>
 6      0 +9.8758382e+01 1.25000000e+02 7.54677100e-03 1.12640300e-01
       21 -1    0    0  502  501 +0.0000000000e+00 +0.0000000000e+00 +1.0507015201e+02 1.0507015201e+02 0.0000000000e+00 0.0000e+00 -1.0000e+00
       21 -1    0    0  501  502 -0.0000000000e+00 -0.0000000000e+00 -3.7177542104e+01 3.7177542104e+01 0.0000000000e+00 0.0000e+00 -1.0000e+00
       25  2    1    2    0    0 +0.0000000000e+00 +0.0000000000e+00 +6.7892609902e+01 1.4224769411e+02 1.2500000000e+02 0.0000e+00 0.0000e+00
      -15  1    3    3    0    0 -5.9390719597e+00 -5.4335656115e+00 +6.0455812305e+01 6.1015237289e+01 1.7770000000e+00 0.0000e+00 -1.0000e+00
       15  1    3    3    0    0 +2.2543158898e+01 +3.2262893493e+01 +2.3450646996e+01 4.5849524350e+01 1.7770000000e+00 0.0000e+00 -1.0000e+00
       22  1    3    3    0    0 -1.6604086939e+01 -2.6829327881e+01 -1.6013849399e+01 3.5382932470e+01 0.0000000000e+00 0.0000e+00 -1.0000e+00
<mgrwt>
<rscale>  2 0.12500000E+03</rscale>
<asrwt>0</asrwt>
<pdfrwt beam="1">  1       21 0.15451493E-01 0.12500000E+03</pdfrwt>
<pdfrwt beam="2">  1       21 0.54672856E-02 0.12500000E+03</pdfrwt>
<totfact> 0.85950865E+06</totfact>
</mgrwt>
</event>
<event>
 6      0 +9.8758382e+01 1.25000000e+02 7.54677100e-03 1.12640300e-01
       21 -1    0    0  502  501 +0.0000000000e+00 +0.0000000000e+00 +4.4308332874e+00 4.4308332874e+00 0.0000000000e+00 0.0000e+00 -1.0000e+00
       21 -1    0    0  501  502 -0.0000000000e+00 -0.0000000000e+00 -8.8160617803e+02 8.8160617803e+02 0.0000000000e+00 0.0000e+00 -1.0000e+00
       25  2    1    2    0    0 +0.0000000000e+00 +0.0000000000e+00 -8.7717534474e+02 8.8603701132e+02 1.2500000000e+02 0.0000e+00 0.0000e+00
      -15  1    3    3    0    0 +1.5828724050e+00 +1.6273881732e+01 -2.8462343406e+01 3.2872593948e+01 1.7770000000e+00 0.0000e+00 -1.0000e+00
       15  1    3    3    0    0 -8.9768293040e+00 +3.4518074116e+01 -3.5029650091e+02 3.5211202363e+02 1.7770000000e+00 0.0000e+00 -1.0000e+00
       22  1    3    3    0    0 +7.3939568990e+00 -5.0791955847e+01 -4.9841650017e+02 5.0105239349e+02 0.0000000000e+00 0.0000e+00 -1.0000e+00
<mgrwt>
<rscale>  2 0.12500000E+03</rscale>
<asrwt>0</asrwt>
<pdfrwt beam="1">  1       21 0.65159319E-03 0.12500000E+03</pdfrwt>
<pdfrwt beam="2">  1       21 0.12964796E+00 0.12500000E+03</pdfrwt>
<totfact> 0.24927949E+06</totfact>
</mgrwt>
</event>
<event>
 6      0 +9.8758382e+01 1.25000000e+02 7.54677100e-03 1.12640300e-01
       21 -1    0    0  502  501 +0.0000000000e+00 +0.0000000000e+00 +1.3022484015e+02 1.3022484015e+02 0.0000000000e+00 0.0000e+00 -1.0000e+00
       21 -1    0    0  501  502 -0.0000000000e+00 -0.0000000000e+00 -2.9996197311e+01 2.9996197311e+01 0.0000000000e+00 0.0000e+00 -1.0000e+00
       25  2    1    2    0    0 +0.0000000000e+00 +0.0000000000e+00 +1.0022864284e+02 1.6022103746e+02 1.2500000000e+02 0.0000e+00 0.0000e+00
      -15  1    3    3    0    0 +2.8831836578e+01 +6.7609407433e+00 +1.6060250970e+01 3.3735359942e+01 1.7770000000e+00 0.0000e+00 -1.0000e+00
       15  1    3    3    0    0 +3.9069768634e+00 -3.4956821265e+01 +7.4213939577e+01 8.2146882946e+01 1.7770000000e+00 0.0000e+00 -1.0000e+00
       22  1    3    3    0    0 -3.2738813441e+01 +2.8195880522e+01 +9.9544522955e+00 4.4338794576e+01 0.0000000000e+00 0.0000e+00 -1.0000e+00
<mgrwt>
<rscale>  2 0.12500000E+03</rscale>
<asrwt>0</asrwt>
<pdfrwt beam="1">  1       21 0.19150712E-01 0.12500000E+03</pdfrwt>
<pdfrwt beam="2">  1       21 0.44112055E-02 0.12500000E+03</pdfrwt>
<totfact> 0.82942677E+06</totfact>
</mgrwt>
</event>
<event>
 6      0 +9.8758382e+01 1.25000000e+02 7.54677100e-03 1.12640300e-01
       21 -1    0    0  502  501 +0.0000000000e+00 +0.0000000000e+00 +3.5822159966e+02 3.5822159966e+02 0.0000000000e+00 0.0000e+00 -1.0000e+00
       21 -1    0    0  501  502 -0.0000000000e+00 -0.0000000000e+00 -1.0904562996e+01 1.0904562996e+01 0.0000000000e+00 0.0000e+00 -1.0000e+00
       25  2    1    2    0    0 +0.0000000000e+00 +0.0000000000e+00 +3.4731703667e+02 3.6912616266e+02 1.2500000000e+02 0.0000e+00 0.0000e+00
      -15  1    3    3    0    0 +2.1174433582e+01 +8.5074069690e+00 +2.4876889045e+01 3.3804584724e+01 1.7770000000e+00 0.0000e+00 -1.0000e+00
       15  1    3    3    0    0 +5.2548946883e+00 +6.4876275166e-02 +2.9876946899e+02 2.9882096891e+02 1.7770000000e+00 0.0000e+00 -1.0000e+00
       22  1    3    3    0    0 -2.6429328271e+01 -8.5722832442e+00 +2.3670678643e+01 3.6500609041e+01 0.0000000000e+00 0.0000e+00 -1.0000e+00
<mgrwt>
<rscale>  2 0.12500000E+03</rscale>
<asrwt>0</asrwt>
<pdfrwt beam="1">  1       21 0.52679639E-01 0.12500000E+03</pdfrwt>
<pdfrwt beam="2">  1       21 0.16036124E-02 0.12500000E+03</pdfrwt>
<totfact> 0.56606328E+06</totfact>
</mgrwt>
</event>
<event>
 6      0 +9.8758382e+01 1.25000000e+02 7.54677100e-03 1.12640300e-01
       21 -1    0    0  502  501 +0.0000000000e+00 +0.0000000000e+00 +2.3394180136e+02 2.3394180136e+02 0.0000000000e+00 0.0000e+00 -1.0000e+00
       21 -1    0    0  501  502 -0.0000000000e+00 -0.0000000000e+00 -1.6697528946e+01 1.6697528946e+01 0.0000000000e+00 0.0000e+00 -1.0000e+00
       25  2    1    2    0    0 +0.0000000000e+00 +0.0000000000e+00 +2.1724427242e+02 2.5063933031e+02 1.2500000000e+02 0.0000e+00 0.0000e+00
      -15  1    3    3    0    0 -3.1167658598e+01 +2.3041636182e+01 +3.2535299129e+01 5.0636383745e+01 1.7770000000e+00 0.0000e+00 -1.0000e+00
       15  1    3    3    0    0 +3.7022933324e+00 +9.9982750884e+00 +4.6835761421e-01 1.0818944888e+01 1.7770000000e+00 0.0000e+00 -1.0000e+00
       22  1    3    3    0    0 +2.7465365265e+01 -3.3039911270e+01 +1.8424061568e+02 1.8918400168e+02 0.0000000000e+00 0.0000e+00 -1.0000e+00
<mgrwt>
<rscale>  2 0.12500000E+03</rscale>
<asrwt>0</asrwt>
<pdfrwt beam="1">  1       21 0.34403204E-01 0.12500000E+03</pdfrwt>
<pdfrwt beam="2">  1       21 0.24555191E-02 0.12500000E+03</pdfrwt>
<totfact> 0.69921037E+06</totfact>
</mgrwt>
</event>
<event>
 6      0 +9.8758382e+01 1.25000000e+02 7.54677100e-03 1.12640300e-01
       21 -1    0    0  502  501 +0.0000000000e+00 +0.0000000000e+00 +6.6439646019e+02 6.6439646019e+02 0.0000000000e+00 0.0000e+00 1.0000e+00
       21 -1    0    0  501  502 -0.0000000000e+00 -0.0000000000e+00 -5.8793961649e+00 5.8793961649e+00 0.0000000000e+00 0.0000e+00 1.0000e+00
       25  2    1    2    0    0 +0.0000000000e+00 +0.0000000000e+00 +6.5851706402e+02 6.7027585635e+02 1.2500000000e+02 0.0000e+00 0.0000e+00
      -15  1    3    3    0    0 +9.3963355239e+00 -2.6875644652e+01 +1.5574308563e+02 1.5833400724e+02 1.7770000000e+00 0.0000e+00 -1.0000e+00
       15  1    3    3    0    0 +3.2441009885e+01 -1.6159722228e+01 +1.7605296986e+02 1.7975361379e+02 1.7770000000e+00 0.0000e+00 -1.0000e+00
       22  1    3    3    0    0 -4.1837345409e+01 +4.3035366880e+01 +3.2672100852e+02 3.3218823532e+02 0.0000000000e+00 0.0000e+00 -1.0000e+00
<mgrwt>
<rscale>  2 0.12500000E+03</rscale>
<asrwt>0</asrwt>
<pdfrwt beam="1">  1       21 0.97705310E-01 0.12500000E+03</pdfrwt>
<pdfrwt beam="2">  1       21 0.86461754E-03 0.12500000E+03</pdfrwt>
<totfact> 0.34460821E+06</totfact>
</mgrwt>
</event>
<event>
 6      0 +9.8758382e+01 1.25000000e+02 7.54677100e-03 1.12640300e-01
       21 -1    0    0  502  501 +0.0000000000e+00 +0.0000000000e+00 +9.2356265256e+00 9.2356265256e+00 0.0000000000e+00 0.0000e+00 1.0000e+00
       21 -1    0    0  501  502 -0.0000000000e+00 -0.0000000000e+00 -4.2295452173e+02 4.2295452173e+02 0.0000000000e+00 0.0000e+00 1.0000e+00
       25  2    1    2    0    0 +0.0000000000e+00 +0.0000000000e+00 -4.1371889520e+02 4.3219014825e+02 1.2500000000e+02 0.0000e+00 0.0000e+00
      -15  1    3    3    0    0 -4.2413533171e+01 -6.9402598632e+00 -2.3796085851e+02 2.4181729242e+02 1.7770000000e+00 0.0000e+00 -1.0000e+00
       15  1    3    3    0    0 -4.6219836848e+00 +1.1757176745e+01 -5.8976149502e+00 1.4054662190e+01 1.7770000000e+00 0.0000e+00 -1.0000e+00
       22  1    3    3    0    0 +4.7035516855e+01 -4.8169168817e+00 -1.6986042176e+02 1.7631819365e+02 0.0000000000e+00 0.0000e+00 -1.0000e+00
<mgrwt>
<rscale>  2 0.12500000E+03</rscale>
<asrwt>0</asrwt>
<pdfrwt beam="1">  1       21 0.13581807E-02 0.12500000E+03</pdfrwt>
<pdfrwt beam="2">  1       21 0.62199179E-01 0.12500000E+03</pdfrwt>
<totfact> 0.50783298E+06</totfact>
</mgrwt>
</event>
<event>
 6      0 +9.8758382e+01 1.25000000e+02 7.54677100e-03 1.12640300e-01
       21 -1    0    0  502  501 +0.0000000000e+00 +0.0000000000e+00 +2.3674055272e+01 2.3674055272e+01 0.0000000000e+00 0.0000e+00 1.0000e+00
       21 -1    0    0  501  502 -0.0000000000e+00 -0.0000000000e+00 -1.6500130439e+02 1.6500130439e+02 0.0000000000e+00 0.0000e+00 1.0000e+00
       25  2    1    2    0    0 +0.0000000000e+00 +0.0000000000e+00 -1.4132724911e+02 1.8867535966e+02 1.2500000000e+02 0.0000e+00 0.0000e+00
      -15  1    3    3    0    0 +2.0821916342e+01 -5.4809716288e+00 -1.0056007632e+02 1.0285465439e+02 1.7770000000e+00 0.0000e+00 -1.0000e+00
       15  1    3    3    0    0 -6.9582473342e+00 -3.8030804657e+00 +2.0642608961e+01 2.2184581598e+01 1.7770000000e+00 0.0000e+00 -1.0000e+00
       22  1    3    3    0    0 -1.3863669008e+01 +9.2840520944e+00 -6.1409781741e+01 6.3636123665e+01 0.0000000000e+00 0.0000e+00 -1.0000e+00
<mgrwt>
<rscale>  2 0.12500000E+03</rscale>
<asrwt>0</asrwt>
<pdfrwt beam="1">  1       21 0.34814788E-02 0.12500000E+03</pdfrwt>
<pdfrwt beam="2">  1       21 0.24264897E-01 0.12500000E+03</pdfrwt>
<totfact> 0.78495499E+06</totfact>
</mgrwt>
</event>
<event>
 6      0 +9.8758382e+01 1.25000000e+02 7.54677100e-03 1.12640300e-01
       21 -1    0    0  502  501 +0.0000000000e+00 +0.0000000000e+00 +7.8002258636e+00 7.8002258636e+00 0.0000000000e+00 0.0000e+00 1.0000e+00
       21 -1    0    0  501  502 -0.0000000000e+00 -0.0000000000e+00 -5.0078678083e+02 5.0078678083e+02 0.0000000000e+00 0.0000e+00 1.0000e+00
       25  2    1    2    0    0 +0.0000000000e+00 +0.0000000000e+00 -4.9298655497e+02 5.0858700670e+02 1.2500000000e+02 0.0000e+00 0.0000e+00
      -15  1    3    3    0    0 -1.3437090706e+01 +1.1194040025e+01 -2.2686100710e+02 2.2754106489e+02 1.7770000000e+00 0.0000e+00 -1.0000e+00
       15  1    3    3    0    0 -3.0098490511e+01 +3.4500905677e+00 -1.8787579725e+02 1.9031104849e+02 1.7770000000e+00 0.0000e+00 -1.0000e+00
       22  1    3    3    0    0 +4.3535581217e+01 -1.4644130593e+01 -7.8249750574e+01 9.0734893276e+01 0.0000000000e+00 0.0000e+00 -1.0000e+00
<mgrwt>
<rscale>  2 0.12500000E+03</rscale>
<asrwt>0</asrwt>
<pdfrwt beam="1">  1       21 0.11470919E-02 0.12500000E+03</pdfrwt>
<pdfrwt beam="2">  1       21 0.73645126E-01 0.12500000E+03</pdfrwt>
<totfact> 0.44693394E+06</totfact>
</mgrwt>
</event>
<event>
 6      0 +9.8758382e+01 1.25000000e+02 7.54677100e-03 1.12640300e-01
       21 -1    0    0  502  501 +0.0000000000e+00 +0.0000000000e+00 +1.3488413982e+02 1.3488413982e+02 0.0000000000e+00 0.0000e+00 -1.0000e+00
       21 -1    0    0  501  502 -0.0000000000e+00 -0.0000000000e+00 -2.8960039372e+01 2.8960039372e+01 0.0000000000e+00 0.0000e+00 -1.0000e+00
       25  2    1    2    0    0 +0.0000000000e+00 +0.0000000000e+00 +1.0592410045e+02 1.6384417920e+02 1.2500000000e+02 0.0000e+00 0.0000e+00
      -15  1    3    3    0    0 +1.6861994709e+01 -1.0201083227e+01 +1.1768624755e+01 2.3022754444e+01 1.7770000000e+00 0.0000e+00 -1.0000e+00
       15  1    3    3    0    0 +7.0954071790e-01 +3.7383286536e+01 -3.8307847198e+00 3.7627731806e+01 1.7770000000e+00 0.0000e+00 -1.0000e+00
       22  1    3    3    0    0 -1.7571535427e+01 -2.7182203309e+01 +9.7986260409e+01 1.0319369294e+02 0.0000000000e+00 0.0000e+00 -1.0000e+00
<mgrwt>
<rscale>  2 0.12500000E+03</rscale>
<asrwt>0</asrwt>
<pdfrwt beam="1">  1       21 0.19835903E-01 0.12500000E+03</pdfrwt>
<pdfrwt beam="2">  1       21 0.42588294E-02 0.12500000E+03</pdfrwt>
<totfact> 0.82353743E+06</totfact>
</mgrwt>
</event>
<event>
 6      0 +9.8758382e+01 1.25000000e+02 7.54677100e-03 1.12640300e-01
       21 -1    0    0  502  501 +0.0000000000e+00 +0.0000000000e+00 +4.5325401230e+02 4.5325401230e+02 0.0000000000e+00 0.0000e+00 -1.0000e+00
       21 -1    0    0  501  502 -0.0000000000e+00 -0.0000000000e+00 -8.6182358986e+00 8.6182358986e+00 0.0000000000e+00 0.0000e+00 -1.0000e+00
       25  2    1    2    0    0 +0.0000000000e+00 +0.0000000000e+00 +4.4463577640e+02 4.6187224820e+02 1.2500000000e+02 0.0000e+00 0.0000e+00
      -15  1    3    3    0    0 -1.4551823332e+01 +2.6125185399e+01 +3.0048935269e+02 3.0197895570e+02 1.7770000000e+00 0.0000e+00 -1.0000e+00
       15  1    3    3    0    0 -1.7028699831e+01 -8.0505615819e+00 +1.1044429324e+01 2.1907197625e+01 1.7770000000e+00 0.0000e+00 -1.0000e+00
       22  1    3    3    0    0 +3.1580523163e+01 -1.8074623817e+01 +1.3310199435e+02 1.3798609484e+02 0.0000000000e+00 0.0000e+00 -1.0000e+00
<mgrwt>
<rscale>  2 0.12500000E+03</rscale>
<asrwt>0</asrwt>
<pdfrwt beam="1">  1       21 0.66654986E-01 0.12500000E+03</pdfrwt>
<pdfrwt beam="2">  1       21 0.12673879E-02 0.12500000E+03</pdfrwt>
<totfact> 0.48299589E+06</totfact>
</mgrwt>
</event>
<event>
 6      0 +9.8758382e+01 1.25000000e+02 7.54677100e-03 1.12640300e-01
       21 -1    0    0  502  501 +0.0000000000e+00 +0.0000000000e+00 +2.5424537514e+01 2.5424537514e+01 0.0000000000e+00 0.0000e+00 -1.0000e+00
       21 -1    0    0  501  502 -0.0000000000e+00 -0.0000000000e+00 -1.5364094618e+02 1.5364094618e+02 0.0000000000e+00 0.0000e+00 -1.0000e+00
       25  2    1    2    0    0 +0.0000000000e+00 +0.0000000000e+00 -1.2821640867e+02 1.7906548370e+02 1.2500000000e+02 0.0000e+00 0.0000e+00
      -15  1    3    3    0    0 -6.4090458866e+00 +7.3168920239e+00 -2.8603770477e+01 3.0264602964e+01 1.7770000000e+00 0.0000e+00 -1.0000e+00
       15  1    3    3    0    0 +1.9154232949e+01 +1.0755483886e+01 -1.1800014556e+02 1.2004064792e+02 1.7770000000e+00 0.0000e+00 -1.0000e+00
       22  1    3    3    0    0 -1.2745187062e+01 -1.8072375910e+01 +1.8387507364e+01 2.8760232811e+01 0.0000000000e+00 0.0000e+00 -1.0000e+00
<mgrwt>
<rscale>  2 0.12500000E+03</rscale>
<asrwt>0</asrwt>
<pdfrwt beam="1">  1       21 0.37389026E-02 0.12500000E+03</pdfrwt>
<pdfrwt beam="2">  1       21 0.22594257E-01 0.12500000E+03</pdfrwt>
<totfact> 0.79949640E+06</totfact>
</mgrwt>
</event>
<event>
 6      0 +9.8758382e+01 1.25000000e+02 7.54677100e-03 1.12640300e-01
       21 -1    0    0  502  501 +0.0000000000e+00 +0.0000000000e+00 +7.1659855617e+01 7.1659855617e+01 0.0000000000e+00 0.0000e+00 -1.0000e+00
       21 -1    0    0  501  502 -0.0000000000e+00 -0.0000000000e+00 -5.4510994564e+01 5.4510994564e+01 0.0000000000e+00 0.0000e+00 -1.0000e+00
       25  2    1    2    0    0 +0.0000000000e+00 +0.0000000000e+00 +1.7148861053e+01 1.2617085018e+02 1.2500000000e+02 0.0000e+00 0.0000e+00
      -15  1    3    3    0    0 -3.2557081699e+01 +2.9450483738e+01 -5.7422382613e-01 4.3940664801e+01 1.7770000000e+00 0.0000e+00 -1.0000e+00
       15  1    3    3    0    0 +4.8312122127e+01 -3.8402748917e+00 +2.5843669533e+00 4.8565888617e+01 1.7770000000e+00 0.0000e+00 -1.0000e+00
       22  1    3    3    0    0 -1.5755040428e+01 -2.5610208846e+01 +1.5138717926e+01 3.3664296762e+01 0.0000000000e+00 0.0000e+00 -1.0000e+00
<mgrwt>
<rscale>  2 0.12500000E+03</rscale>
<asrwt>0</asrwt>
<pdfrwt beam="1">  1       21 0.10538214E-01 0.12500000E+03</pdfrwt>
<pdfrwt beam="2">  1       21 0.80163227E-02 0.12500000E+03</pdfrwt>
<totfact> 0.88780966E+06</totfact>
</mgrwt>
</event>
<event>
 6      0 +9.8758382e+01 1.25000000e+02 7.54677100e-03 1.12640300e-01
       21 -1    0    0  502  501 +0.0000000000e+00 +0.0000000000e+00 +2.3925666945e+01 2.3925666945e+01 0.0000000000e+00 0.0000e+00 1.0000e+00
       21 -1    0    0  501  502 -0.0000000000e+00 -0.0000000000e+00 -1.6326608613e+02 1.6326608613e+02 0.0000000000e+00 0.0000e+00 1.0000e+00
       25  2    1    2    0    0 +0.0000000000e+00 +0.0000000000e+00 -1.3934041918e+02 1.8719175307e+02 1.2500000000e+02 0.0000e+00 0.0000e+00
      -15  1    3    3    0    0 -3.4587981490e+01 +2.2153042587e+00 -7.5598890434e+01 8.3184048954e+01 1.7770000000e+00 0.0000e+00 -1.0000e+00
       15  1    3    3    0    0 +3.6487521199e+01 +2.6779213655e+01 -5.9290268235e+01 7.4612057494e+01 1.7770000000e+00 0.0000e+00 -1.0000e+00
       22  1    3    3    0    0 -1.8995397089e+00 -2.8994517913e+01 -4.4512605102e+00 2.9395646621e+01 0.0000000000e+00 0.0000e+00 -1.0000e+00
<mgrwt>
<rscale>  2 0.12500000E+03</rscale>
<asrwt>0</asrwt>
<pdfrwt beam="1">  1       21 0.35184805E-02 0.12500000E+03</pdfrwt>
<pdfrwt beam="2">  1       21 0.24009718E-01 0.12500000E+03</pdfrwt>
<totfact> 0.78717688E+06</totfact>
</mgrwt>
</event>
<event>
 6      0 +9.8758382e+01 1.25000000e+02 7.54677100e-03 1.12640300e-01
       21 -1    0    0  502  501 +0.0000000000e+00 +0.0000000000e+00 +4.8096255757e+01 4.8096255757e+01 0.0000000000e+00 0.0000e+00 1.0000e+00
       21 -1    0    0  501  502 -0.0000000000e+00 -0.0000000000e+00 -8.1217340904e+01 8.1217340904e+01 0.0000000000e+00 0.0000e+00 1.0000e+00
       25  2    1    2    0    0 +0.0000000000e+00 +0.0000000000e+00 -3.3121085148e+01 1.2931359666e+02 1.2500000000e+02 0.0000e+00 0.0000e+00
      -15  1    3    3    0    0 +1.2763114425e+01 +9.5751922799e+00 -4.3668904643e+01 4.6526469442e+01 1.7770000000e+00 0.0000e+00 -1.0000e+00
       15  1    3    3    0    0 -2.1870971093e+01 -2.0719395089e+01 -2.8291628089e+01 4.1366733716e+01 1.7770000000e+00 0.0000e+00 -1.0000e+00
       22  1    3    3    0    0 +9.1078566680e+00 +1.1144202809e+01 +3.8839447584e+01 4.1420393503e+01 0.0000000000e+00 0.0000e+00 -1.0000e+00
<mgrwt>
<rscale>  2 0.12500000E+03</rscale>
<asrwt>0</asrwt>
<pdfrwt beam="1">  1       21 0.70729789E-02 0.12500000E+03</pdfrwt>
<pdfrwt beam="2">  1       21 0.11943726E-01 0.12500000E+03</pdfrwt>
<totfact> 0.88222722E+06</totfact>
</mgrwt>
</event>
<event>
 6      0 +9.8758382e+01 1.25000000e+02 7.54677100e-03 1.12640300e-01
       21 -1    0    0  502  501 +0.0000000000e+00 +0.0000000000e+00 +1.4770130691e+01 1.4770130691e+01 0.0000000000e+00 0.0000e+00 -1.0000e+00
       21 -1    0    0  501  502 -0.0000000000e+00 -0.0000000000e+00 -2.6446956237e+02 2.6446956237e+02 0.0000000000e+00 0.0000e+00 -1.0000e+00
       25  2    1    2    0    0 +0.0000000000e+00 +0.0000000000e+00 -2.4969943168e+02 2.7923969306e+02 1.2500000000e+02 0.0000e+00 0.0000e+00
      -15  1    3    3    0    0 +8.4334418365e+00 +8.8993278646e+00 -1.0601792894e+02 1.0673930843e+02 1.7770000000e+00 0.0000e+00 -1.0000e+00
       15  1    3    3    0    0 -6.0136360735e+00 -1.9987355795e+01 -1.5503704864e+02 1.5644584491e+02 1.7770000000e+00 0.0000e+00 -1.0000e+00
       22  1    3    3    0    0 -2.4198057629e+00 +1.1088027930e+01 +1.1355545895e+01 1.6054539726e+01 0.0000000000e+00 0.0000e+00 -1.0000e+00
<mgrwt>
<rscale>  2 0.12500000E+03</rscale>
<asrwt>0</asrwt>
<pdfrwt beam="1">  1       21 0.21720781E-02 0.12500000E+03</pdfrwt>
<pdfrwt beam="2">  1       21 0.38892582E-01 0.12500000E+03</pdfrwt>
<totfact> 0.66382181E+06</totfact>
</mgrwt>
</event>
<event>
 6      0 +9.8758382e+01 1.25000000e+02 7.54677100e-03 1.12640300e-01
       21 -1    0    0  502  501 +0.0000000000e+00 +0.0000000000e+00 +4.9710616102e+02 4.9710616102e+02 0.0000000000e+00 0.0000e+00 1.0000e+00
       21 -1    0    0  501  502 -0.0000000000e+00 -0.0000000000e+00 -7.8579794546e+00 7.8579794546e+00 0.0000000000e+00 0.0000e+00 1.0000e+00
       25  2    1    2    0    0 +0.0000000000e+00 +0.0000000000e+00 +4.8924818156e+02 5.0496414047e+02 1.2500000000e+02 0.0000e+00 0.0000e+00
      -15  1    3    3    0    0 +4.9178245186e+01 -1.6459749007e+01 +2.8154598731e+02 2.8628783389e+02 1.7770000000e+00 0.0000e+00 -1.0000e+00
       15  1    3    3    0    0 -2.9761737874e+01 -1.2930330951e+01 +8.4368348343e+01 9.0410897744e+01 1.7770000000e+00 0.0000e+00 -1.0000e+00
       22  1    3    3    0    0 -1.9416507311e+01 +2.9390079958e+01 +1.2333384590e+02 1.2826540882e+02 0.0000000000e+00 0.0000e+00 -1.0000e+00
<mgrwt>
<rscale>  2 0.12500000E+03</rscale>
<asrwt>0</asrwt>
<pdfrwt beam="1">  1       21 0.73103825E-01 0.12500000E+03</pdfrwt>
<pdfrwt beam="2">  1       21 0.11555856E-02 0.12500000E+03</pdfrwt>
<totfact> 0.44958732E+06</totfact>
</mgrwt>
</event>
<event>
 6      0 +9.8758382e+01 1.25000000e+02 7.54677100e-03 1.12640300e-01
       21 -1    0    0  502  501 +0.0000000000e+00 +0.0000000000e+00 +2.8206960818e+01 2.8206960818e+01 0.0000000000e+00 0.0000e+00 -1.0000e+00
       21 -1    0    0  501  502 -0.0000000000e+00 -0.0000000000e+00 -1.3848532017e+02 1.3848532017e+02 0.0000000000e+00 0.0000e+00 -1.0000e+00
       25  2    1    2    0    0 +0.0000000000e+00 +0.0000000000e+00 -1.1027835936e+02 1.6669228099e+02 1.2500000000e+02 0.0000e+00 0.0000e+00
      -15  1    3    3    0    0 -3.8308792605e+01 +1.9370155016e+01 -6.3561844445e+00 4.3431846678e+01 1.7770000000e+00 0.0000e+00 -1.0000e+00
       15  1    3    3    0    0 +4.6134512742e+01 -1.8512357915e+00 -8.2043766146e+01 9.4160276297e+01 1.7770000000e+00 0.0000e+00 -1.0000e+00
       22  1    3    3    0    0 -7.8257201367e+00 -1.7518919224e+01 -2.1878408774e+01 2.9100158022e+01 0.0000000000e+00 0.0000e+00 -1.0000e+00
<mgrwt>
<rscale>  2 0.12500000E+03</rscale>
<asrwt>0</asrwt>
<pdfrwt beam="1">  1       21 0.41480825E-02 0.12500000E+03</pdfrwt>
<pdfrwt beam="2">  1       21 0.20365488E-01 0.12500000E+03</pdfrwt>
<totfact> 0.81892868E+06</totfact>
</mgrwt>
</event>
<event>
 6      0 +9.8758382e+01 1.25000000e+02 7.54677100e-03 1.12640300e-01
       21 -1    0    0  502  501 +0.0000000000e+00 +0.0000000000e+00 +1.3156717159e+01 1.3156717159e+01 0.0000000000e+00 0.0000e+00 -1.0000e+00
       21 -1    0    0  501  502 -0.0000000000e+00 -0.0000000000e+00 -2.9690157148e+02 2.9690157148e+02 0.0000000000e+00 0.0000e+00 -1.0000e+00
       25  2    1    2    0    0 +0.0000000000e+00 +0.0000000000e+00 -2.8374485432e+02 3.1005828864e+02 1.2500000000e+02 0.0000e+00 0.0000e+00
      -15  1    3    3    0    0 +4.7026643340e+00 +1.3846063280e+01 -3.1670507037e+00 1.5067065387e+01 1.7770000000e+00 0.0000e+00 -1.0000e+00
       15  1    3    3    0    0 +3.2978637971e+00 +3.8121939575e+01 -1.2790431394e+02 1.3351715035e+02 1.7770000000e+00 0.0000e+00 -1.0000e+00
       22  1    3    3    0    0 -8.0005281311e+00 -5.1968002856e+01 -1.5267348966e+02 1.6147407290e+02 0.0000000000e+00 0.0000e+00 -1.0000e+00
<mgrwt>
<rscale>  2 0.12500000E+03</rscale>
<asrwt>0</asrwt>
<pdfrwt beam="1">  1       21 0.19348113E-02 0.12500000E+03</pdfrwt>
<pdfrwt beam="2">  1       21 0.43661997E-01 0.12500000E+03</pdfrwt>
<totfact> 0.62808251E+06</totfact>
</mgrwt>
</event>
<event>
 6      0 +9.8758382e+01 1.25000000e+02 7.54677100e-03 1.12640300e-01
       21 -1    0    0  502  501 +0.0000000000e+00 +0.0000000000e+00 +6.1067682841e+01 6.1067682841e+01 0.0000000000e+00 0.0000e+00 1.0000e+00
       21 -1    0    0  501  502 -0.0000000000e+00 -0.0000000000e+00 -6.3965911564e+01 6.3965911564e+01 0.0000000000e+00 0.0000e+00 1.0000e+00
       25  2    1    2    0    0 +0.0000000000e+00 +0.0000000000e+00 -2.8982287228e+00 1.2503359440e+02 1.2500000000e+02 0.0000e+00 0.0000e+00
      -15  1    3    3    0    0 +1.3601451421e+01 +1.7683744252e+01 +2.4984091828e+01 3.3542165479e+01 1.7770000000e+00 0.0000e+00 -1.0000e+00
       15  1    3    3    0    0 -4.5456365865e+01 -1.3043450909e+01 +2.2780417466e+00 4.7378898388e+01 1.7770000000e+00 0.0000e+00 -1.0000e+00
       22  1    3    3    0    0 +3.1854914444e+01 -4.6402933433e+00 -3.0160362297e+01 4.4112530538e+01 0.0000000000e+00 0.0000e+00 -1.0000e+00
<mgrwt>
<rscale>  2 0.12500000E+03</rscale>
<asrwt>0</asrwt>
<pdfrwt beam="1">  1       21 0.89805416E-02 0.12500000E+03</pdfrwt>
<pdfrwt beam="2">  1       21 0.94067516E-02 0.12500000E+03</pdfrwt>
<totfact> 0.88995143E+06</totfact>
</mgrwt>
</event>
<event>
 6      0 +9.8758382e+01 1.25000000e+02 7.54677100e-03 1.12640300e-01
       21 -1    0    0  502  501 +0.0000000000e+00 +0.0000000000e+00 +1.1791000646e+01 1.1791000646e+01 0.0000000000e+00 0.0000e+00 1.0000e+00
       21 -1    0    0  501  502 -0.0000000000e+00 -0.0000000000e+00 -3.3129079689e+02 3.3129079689e+02 0.0000000000e+00 0.0000e+00 1.0000e+00
       25  2    1    2    0    0 +0.0000000000e+00 +0.0000000000e+00 -3.1949979625e+02 3.4308179754e+02 1.2500000000e+02 0.0000e+00 0.0000e+00
      -15  1    3    3    0    0 +2.2645036548e+01 -4.3600544015e+00 -9.4603927915e+01 9.7390290382e+01 1.7770000000e+00 0.0000e+00 -1.0000e+00
       15  1    3    3    0    0 -1.0749374418e+01 +4.9940162174e+01 -1.3158272996e+02 1.4116211036e+02 1.7770000000e+00 0.0000e+00 -1.0000e+00
       22  1    3    3    0    0 -1.1895662130e+01 -4.5580107772e+01 -9.3313138377e+01 1.0452939680e+02 0.0000000000e+00 0.0000e+00 -1.0000e+00
<mgrwt>
<rscale>  2 0.12500000E+03</rscale>
<asrwt>0</asrwt>
<pdfrwt beam="1">  1       21 0.17339708E-02 0.12500000E+03</pdfrwt>
<pdfrwt beam="2">  1       21 0.48719232E-01 0.12500000E+03</pdfrwt>
<totfact> 0.59242987E+06</totfact>
</mgrwt>
</event>
<event>
 6      0 +9.8758382e+01 1.25000000e+02 7.54677100e-03 1.12640300e-01
       21 -1    0    0  502  501 +0.0000000000e+00 +0.0000000000e+00 +5.6630801953e+01 5.6630801953e+01 0.0000000000e+00 0.0000e+00 1.0000e+00
       21 -1    0    0  501  502 -0.0000000000e+00 -0.0000000000e+00 -6.8977479839e+01 6.8977479839e+01 0.0000000000e+00 0.0000e+00 1.0000e+00
       25  2    1    2    0    0 +0.0000000000e+00 +0.0000000000e+00 -1.2346677887e+01 1.2560828179e+02 1.2500000000e+02 0.0000e+00 0.0000e+00
      -15  1    3    3    0    0 +9.3227576959e+00 -4.3766387292e+01 +1.7011308626e+01 4.7905665821e+01 1.7770000000e+00 0.0000e+00 -1.0000e+00
       15  1    3    3    0    0 +4.5739830855e+00 -1.2755807730e+01 -6.9507352374e+00 1.5333049320e+01 1.7770000000e+00 0.0000e+00 -1.0000e+00
       22  1    3    3    0    0 -1.3896740781e+01 +5.6522195022e+01 -2.2407251275e+01 6.2369566650e+01 0.0000000000e+00 0.0000e+00 -1.0000e+00
<mgrwt>
<rscale>  2 0.12500000E+03</rscale>
<asrwt>0</asrwt>
<pdfrwt beam="1">  1       21 0.83280592E-02 0.12500000E+03</pdfrwt>
<pdfrwt beam="2">  1       21 0.10143747E-01 0.12500000E+03</pdfrwt>
<totfact> 0.88883314E+06</totfact>
</mgrwt>
</event>
<event>
 6      0 +9.8758382e+01 1.25000000e+02 7.54677100e-03 1.12640300e-01
       21 -1    0    0  502  501 +0.0000000000e+00 +0.0000000000e+00 +4.7193519168e+01 4.7193519168e+01 0.0000000000e+00 0.0000e+00 1.0000e+00
       21 -1    0    0  501  502 -0.0000000000e+00 -0.0000000000e+00 -8.2770898819e+01 8.2770898819e+01 0.0000000000e+00 0.0000e+00 1.0000e+00
       25  2    1    2    0    0 +0.0000000000e+00 +0.0000000000e+00 -3.5577379651e+01 1.2996441799e+02 1.2500000000e+02 0.0000e+00 0.0000e+00
      -15  1    3    3    0    0 +5.1634991427e+00 -2.6547919044e+01 -3.6979697763e+01 4.5848767755e+01 1.7770000000e+00 0.0000e+00 -1.0000e+00
       15  1    3    3    0    0 -2.4544159905e+01 +1.2009243918e+01 -3.2467377842e+01 4.2472650940e+01 1.7770000000e+00 0.0000e+00 -1.0000e+00
       22  1    3    3    0    0 +1.9380660762e+01 +1.4538675125e+01 +3.3869695955e+01 4.1642999293e+01 0.0000000000e+00 0.0000e+00 -1.0000e+00
<mgrwt>
<rscale>  2 0.12500000E+03</rscale>
<asrwt>0</asrwt>
<pdfrwt beam="1">  1       21 0.69402234E-02 0.12500000E+03</pdfrwt>
<pdfrwt beam="2">  1       21 0.12172191E-01 0.12500000E+03</pdfrwt>
<totfact> 0.88104458E+06</totfact>
</mgrwt>
</event>
<event>
 6      0 +9.8758382e+01 1.25000000e+02 7.54677100e-03 1.12640300e-01
       21 -1    0    0  502  501 +0.0000000000e+00 +0.0000000000e+00 +1.2131365728e+02 1.2131365728e+02 0.0000000000e+00 0.0000e+00 1.0000e+00
       21 -1    0    0  501  502 -0.0000000000e+00 -0.0000000000e+00 -3.2199589787e+01 3.2199589787e+01 0.0000000000e+00 0.0000e+00 1.0000e+00
       25  2    1    2    0    0 +0.0000000000e+00 +0.0000000000e+00 +8.9114067492e+01 1.5351324707e+02 1.2500000000e+02 0.0000e+00 0.0000e+00
      -15  1    3    3    0    0 +1.8154286219e+01 +3.2484947969e+00 +2.9962785543e+01 3.5228639955e+01 1.7770000000e+00 0.0000e+00 -1.0000e+00
       15  1    3    3    0    0 +2.0553128631e+01 -3.7504318230e+01 +4.9953580514e+01 6.5783910780e+01 1.7770000000e+00 0.0000e+00 -1.0000e+00
       22  1    3    3    0    0 -3.8707414850e+01 +3.4255823433e+01 +9.1977014318e+00 5.2500696330e+01 0.0000000000e+00 0.0000e+00 -1.0000e+00
<mgrwt>
<rscale>  2 0.12500000E+03</rscale>
<asrwt>0</asrwt>
<pdfrwt beam="1">  1       21 0.17840244E-01 0.12500000E+03</pdfrwt>
<pdfrwt beam="2">  1       21 0.47352338E-02 0.12500000E+03</pdfrwt>
<totfact> 0.84040531E+06</totfact>
</mgrwt>
</event>
<event>
 6      0 +9.8758382e+01 1.25000000e+02 7.54677100e-03 1.12640300e-01
       21 -1    0    0  502  501 +0.0000000000e+00 +0.0000000000e+00 +1.0235643863e+03 1.0235643863e+03 0.0000000000e+00 0.0000e+00 -1.0000e+00
       21 -1    0    0  501  502 -0.0000000000e+00 -0.0000000000e+00 -3.8163207438e+00 3.8163207438e+00 0.0000000000e+00 0.0000e+00 -1.0000e+00
       25  2    1    2    0    0 +0.0000000000e+00 +0.0000000000e+00 +1.0197480655e+03 1.0273807070e+03 1.2500000000e+02 0.0000e+00 0.0000e+00
      -15  1    3    3    0    0 +2.8968783973e+00 -3.5318594094e+01 +4.9799296797e+02 4.9925539443e+02 1.7770000000e+00 0.0000e+00 -1.0000e+00
       15  1    3    3    0    0 +1.3675932571e+01 +2.2903777155e+01 +4.8653475571e+02 4.8726875580e+02 1.7770000000e+00 0.0000e+00 -1.0000e+00
       22  1    3    3    0    0 -1.6572810968e+01 +1.2414816939e+01 +3.5220341005e+01 4.0856555943e+01 0.0000000000e+00 0.0000e+00 -1.0000e+00
<mgrwt>
<rscale>  2 0.12500000E+03</rscale>
<asrwt>0</asrwt>
<pdfrwt beam="1">  1       21 0.15052398E+00 0.12500000E+03</pdfrwt>
<pdfrwt beam="2">  1       21 0.56122435E-03 0.12500000E+03</pdfrwt>
<totfact> 0.20375945E+06</totfact>
</mgrwt>
</event>
<event>
 6      0 +9.8758382e+01 1.25000000e+02 7.54677100e-03 1.12640300e-01
       21 -1    0    0  502  501 +0.0000000000e+00 +0.0000000000e+00 +1.1370516953e+03 1.1370516953e+03 0.0000000000e+00 0.0000e+00 -1.0000e+00
       21 -1    0    0  501  502 -0.0000000000e+00 -0.0000000000e+00 -3.4354198811e+00 3.4354198811e+00 0.0000000000e+00 0.0000e+00 -1.0000e+00
       25  2    1    2    0    0 +0.0000000000e+00 +0.0000000000e+00 +1.1336162755e+03 1.1404871152e+03 1.2500000000e+02 0.0000e+00 0.0000e+00
      -15  1    3    3    0    0 +5.6085253104e+00 -1.0075779786e+01 +5.9079506897e+01 6.0220617388e+01 1.7770000000e+00 0.0000e+00 -1.0000e+00
       15  1    3    3    0    0 +1.8897726645e+01 -1.9651755852e+01 +7.2309507772e+01 7.7299018258e+01 1.7770000000e+00 0.0000e+00 -1.0000e+00
       22  1    3    3    0    0 -2.4506251955e+01 +2.9727535638e+01 +1.0022272659e+03 1.0029674847e+03 0.0000000000e+00 0.0000e+00 -1.0000e+00
<mgrwt>
<rscale>  2 0.12500000E+03</rscale>
<asrwt>0</asrwt>
<pdfrwt beam="1">  1       21 0.16721322E+00 0.12500000E+03</pdfrwt>
<pdfrwt beam="2">  1       21 0.50520960E-03 0.12500000E+03</pdfrwt>
<totfact> 0.17400068E+06</totfact>
</mgrwt>
</event>
<event>
 6      0 +9.8758382e+01 1.25000000e+02 7.54677100e-03 1.12640300e-01
       21 -1    0    0  502  501 +0.0000000000e+00 +0.0000000000e+00 +6.1686534597e+01 6.1686534597e+01 0.0000000000e+00 0.0000e+00 1.0000e+00
       21 -1    0    0  501  502 -0.0000000000e+00 -0.0000000000e+00 -6.3324192638e+01 6.3324192638e+01 0.0000000000e+00 0.0000e+00 1.0000e+00
       25  2    1    2    0    0 +0.0000000000e+00 +0.0000000000e+00 -1.6376580411e+00 1.2501072724e+02 1.2500000000e+02 0.0000e+00 0.0000e+00
      -15  1    3    3    0    0 +1.7362100966e+01 +2.0586172035e+00 -2.5724517818e+01 3.1154277406e+01 1.7770000000e+00 0.0000e+00 -1.0000e+00
       15  1    3    3    0    0 -1.8696656739e+01 -1.4970571005e+01 -2.9888174346e+01 3.8342452506e+01 1.7770000000e+00 0.0000e+00 -1.0000e+00
       22  1    3    3    0    0 +1.3345557732e+00 +1.2911953801e+01 +5.3975034123e+01 5.5513997322e+01 0.0000000000e+00 0.0000e+00 -1.0000e+00
<mgrwt>
<rscale>  2 0.12500000E+03</rscale>
<asrwt>0</asrwt>
<pdfrwt beam="1">  1       21 0.90715493E-02 0.12500000E+03</pdfrwt>
<pdfrwt beam="2">  1       21 0.93123812E-02 0.12500000E+03</pdfrwt>
<totfact> 0.88999987E+06</totfact>
</mgrwt>
</event>
<event>
 6      0 +9.8758382e+01 1.25000000e+02 7.54677100e-03 1.12640300e-01
       21 -1    0    0  502  501 +0.0000000000e+00 +0.0000000000e+00 +1.2018639531e+01 1.2018639531e+01 0.0000000000e+00 0.0000e+00 1.0000e+00
       21 -1    0    0  501  502 -0.0000000000e+00 -0.0000000000e+00 -3.2501598786e+02 3.2501598786e+02 0.0000000000e+00 0.0000e+00 1.0000e+00
       25  2    1    2    0    0 +0.0000000000e+00 +0.0000000000e+00 -3.1299734833e+02 3.3703462739e+02 1.2500000000e+02 0.0000e+00 0.0000e+00
      -15  1    3    3    0    0 -1.5589291217e+01 +9.1127913516e+00 -9.3304274668e+00 2.0403028514e+01 1.7770000000e+00 0.0000e+00 -1.0000e+00
       15  1    3    3    0    0 +3.4956087418e+01 +3.5393423618e+00 -4.5911237977e+01 5.7839903990e+01 1.7770000000e+00 0.0000e+00 -1.0000e+00
       22  1    3    3    0    0 -1.9366796202e+01 -1.2652133713e+01 -2.5775568290e+02 2.5879169490e+02 0.0000000000e+00 0.0000e+00 -1.0000e+00
<mgrwt>
<rscale>  2 0.12500000E+03</rscale>
<asrwt>0</asrwt>
<pdfrwt beam="1">  1       21 0.17674472E-02 0.12500000E+03</pdfrwt>
<pdfrwt beam="2">  1       21 0.47796464E-01 0.12500000E+03</pdfrwt>
<totfact> 0.59876037E+06</totfact>
</mgrwt>
</event>
<event>
 6      0 +9.8758382e+01 1.25000000e+02 7.54677100e-03 1.12640300e-01
       21 -1    0    0  502  501 +0.0000000000e+00 +0.0000000000e+00 +1.0037758100e+03 1.0037758100e+03 0.0000000000e+00 0.0000e+00 -1.0000e+00
       21 -1    0    0  501  502 -0.0000000000e+00 -0.0000000000e+00 -3.8915562231e+00 3.8915562231e+00 0.0000000000e+00 0.0000e+00 -1.0000e+00
       25  2    1    2    0    0 +0.0000000000e+00 +0.0000000000e+00 +9.9988425378e+02 1.0076673662e+03 1.2500000000e+02 0.0000e+00 0.0000e+00
      -15  1    3    3    0    0 -2.9779036014e+01 -2.7588462890e+01 +4.7191023860e+02 4.7365635781e+02 1.7770000000e+00 0.0000e+00 -1.0000e+00
       15  1    3    3    0    0 +4.3799088069e+01 +1.4502387239e+00 +4.1105969491e+02 4.1339290489e+02 1.7770000000e+00 0.0000e+00 -1.0000e+00
       22  1    3    3    0    0 -1.4020052055e+01 +2.6138224166e+01 +1.1691432195e+02 1.2061810519e+02 0.0000000000e+00 0.0000e+00 -1.0000e+00
<mgrwt>
<rscale>  2 0.12500000E+03</rscale>
<asrwt>0</asrwt>
<pdfrwt beam="1">  1       21 0.14761391E+00 0.12500000E+03</pdfrwt>
<pdfrwt beam="2">  1       21 0.57228838E-03 0.12500000E+03</pdfrwt>
<totfact> 0.20951768E+06</totfact>
</mgrwt>
</event>
<event>
 6      0 +9.8758382e+01 1.25000000e+02 7.54677100e-03 1.12640300e-01
       21 -1    0    0  502  501 +0.0000000000e+00 +0.0000000000e+00 +1.4110693061e+02 1.4110693061e+02 0.0000000000e+00 0.0000e+00 1.0000e+00
       21 -1    0    0  501  502 -0.0000000000e+00 -0.0000000000e+00 -2.7682906737e+01 2.7682906737e+01 0.0000000000e+00 0.0000e+00 1.0000e+00
       25  2    1    2    0    0 +0.0000000000e+00 +0.0000000000e+00 +1.1342402387e+02 1.6878983734e+02 1.2500000000e+02 0.0000e+00 0.0000e+00
      -15  1    3    3    0    0 -3.5108713466e+01 -9.3653085705e-01 -1.0145022737e+01 3.6600246812e+01 1.7770000000e+00 0.0000e+00 -1.0000e+00
       15  1    3    3    0    0 +8.4642098411e+00 +7.4558125352e+00 +7.9250529576e+01 8.0068946265e+01 1.7770000000e+00 0.0000e+00 -1.0000e+00
       22  1    3    3    0    0 +2.6644503625e+01 -6.5192816782e+00 +4.4318517038e+01 5.2120644273e+01 0.0000000000e+00 0.0000e+00 -1.0000e+00
<mgrwt>
<rscale>  2 0.12500000E+03</rscale>
<asrwt>0</asrwt>
<pdfrwt beam="1">  1       21 0.20751019E-01 0.12500000E+03</pdfrwt>
<pdfrwt beam="2">  1       21 0.40710158E-02 0.12500000E+03</pdfrwt>
<totfact> 0.81556779E+06</totfact>
</mgrwt>
</event>
<event>
 6      0 +9.8758382e+01 1.25000000e+02 7.54677100e-03 1.12640300e-01
       21 -1    0    0  502  501 +0.0000000000e+00 +0.0000000000e+00 +5.3997906526e+01 5.3997906526e+01 0.0000000000e+00 0.0000e+00 1.0000e+00
       21 -1    0    0  501  502 -0.0000000000e+00 -0.0000000000e+00 -7.2340767472e+01 7.2340767472e+01 0.0000000000e+00 0.0000e+00 1.0000e+00
       25  2    1    2    0    0 +0.0000000000e+00 +0.0000000000e+00 -1.8342860946e+01 1.2633867400e+02 1.2500000000e+02 0.0000e+00 0.0000e+00
      -15  1    3    3    0    0 +3.6586581975e+00 +1.5435906538e+01 +1.5169089860e+01 2.2020717669e+01 1.7770000000e+00 0.0000e+00 -1.0000e+00
       15  1    3    3    0    0 +4.5176478156e+01 -9.5640735069e+00 -2.7286262348e+00 4.6292427142e+01 1.7770000000e+00 0.0000e+00 -1.0000e+00
       22  1    3    3    0    0 -4.8835136354e+01 -5.8718330313e+00 -3.0783324571e+01 5.8025529187e+01 0.0000000000e+00 0.0000e+00 -1.0000e+00
<mgrwt>
<rscale>  2 0.12500000E+03</rscale>
<asrwt>0</asrwt>
<pdfrwt beam="1">  1       21 0.79408687E-02 0.12500000E+03</pdfrwt>
<pdfrwt beam="2">  1       21 0.10638348E-01 0.12500000E+03</pdfrwt>
<totfact> 0.88750881E+06</totfact>
</mgrwt>
</event>
<event>
 6      0 +9.8758382e+01 1.25000000e+02 7.54677100e-03 1.12640300e-01
       21 -1    0    0  502  501 +0.0000000000e+00 +0.0000000000e+00 +3.1785874383e+02 3.1785874383e+02 0.0000000000e+00 0.0000e+00 1.0000e+00
       21 -1    0    0  501  502 -0.0000000000e+00 -0.0000000000e+00 -1.2289263945e+01 1.2289263945e+01 0.0000000000e+00 0.0000e+00 1.0000e+00
       25  2    1    2    0    0 +0.0000000000e+00 +0.0000000000e+00 +3.0556947988e+02 3.3014800777e+02 1.2500000000e+02 0.0000e+00 0.0000e+00
      -15  1    3    3    0    0 +1.2962821443e+01 +3.6244967453e+01 +1.2824364737e+02 1.3390789083e+02 1.7770000000e+00 0.0000e+00 -1.0000e+00
       15  1    3    3    0    0 +7.7576439079e+00 -4.9771753431e+01 +1.5472256123e+02 1.6272564998e+02 1.7770000000e+00 0.0000e+00 -1.0000e+00
       22  1    3    3    0    0 -2.0720465351e+01 +1.3526785978e+01 +2.2603271271e+01 3.3514466957e+01 0.0000000000e+00 0.0000e+00 -1.0000e+00
<mgrwt>
<rscale>  2 0.12500000E+03</rscale>
<asrwt>0</asrwt>
<pdfrwt beam="1">  1       21 0.46743928E-01 0.12500000E+03</pdfrwt>
<pdfrwt beam="2">  1       21 0.18072449E-02 0.12500000E+03</pdfrwt>
<totfact> 0.60607420E+06</totfact>
</mgrwt>
</event>
<event>
 6      0 +9.8758382e+01 1.25000000e+02 7.54677100e-03 1.12640300e-01
       21 -1    0    0  502  501 +0.0000000000e+00 +0.0000000000e+00 +5.1049892411e+02 5.1049892411e+02 0.0000000000e+00 0.0000e+00 1.0000e+00
       21 -1    0    0  501  502 -0.0000000000e+00 -0.0000000000e+00 -7.6518280754e+00 7.6518280754e+00 0.0000000000e+00 0.0000e+00 1.0000e+00
       25  2    1    2    0    0 +0.0000000000e+00 +0.0000000000e+00 +5.0284709604e+02 5.1815075219e+02 1.2500000000e+02 0.0000e+00 0.0000e+00
      -15  1    3    3    0    0 +6.1413026313e+00 -2.7652785924e+01 +8.2460398090e+01 8.7208182813e+01 1.7770000000e+00 0.0000e+00 -1.0000e+00
       15  1    3    3    0    0 +3.0614777817e+01 -1.5199741191e+01 +2.2407991132e+02 2.2667876200e+02 1.7770000000e+00 0.0000e+00 -1.0000e+00
       22  1    3    3    0    0 -3.6756080448e+01 +4.2852527114e+01 +1.9630678665e+02 2.0426380740e+02 0.0000000000e+00 0.0000e+00 -1.0000e+00
<mgrwt>
<rscale>  2 0.12500000E+03</rscale>
<asrwt>0</asrwt>
<pdfrwt beam="1">  1       21 0.75073348E-01 0.12500000E+03</pdfrwt>
<pdfrwt beam="2">  1       21 0.11252692E-02 0.12500000E+03</pdfrwt>
<totfact> 0.44003107E+06</totfact>
</mgrwt>
</event>
<event>
 6      0 +9.8758382e+01 1.25000000e+02 7.54677100e-03 1.12640300e-01
       21 -1    0    0  502  501 +0.0000000000e+00 +0.0000000000e+00 +1.1454182726e+01 1.1454182726e+01 0.0000000000e+00 0.0000e+00 -1.0000e+00
       21 -1    0    0  501  502 -0.0000000000e+00 -0.0000000000e+00 -3.4103262480e+02 3.4103262480e+02 0.0000000000e+00 0.0000e+00 -1.0000e+00
       25  2    1    2    0    0 +0.0000000000e+00 +0.0000000000e+00 -3.2957844207e+02 3.5248680752e+02 1.2500000000e+02 0.0000e+00 0.0000e+00
      -15  1    3    3    0    0 +2.0701336146e+00 +4.2128860642e+01 -9.3313054265e+01 1.0241879797e+02 1.7770000000e+00 0.0000e+00 -1.0000e+00
       15  1    3    3    0    0 -8.0289430291e+00 +9.9842142975e+00 -6.6621444409e+00 1.4549582773e+01 1.7770000000e+00 0.0000e+00 -1.0000e+00
       22  1    3    3    0    0 +5.9588094144e+00 -5.2113074939e+01 -2.2960324338e+02 2.3551842680e+02 0.0000000000e+00 0.0000e+00 -1.0000e+00
<mgrwt>
<rscale>  2 0.12500000E+03</rscale>
<asrwt>0</asrwt>
<pdfrwt beam="1">  1       21 0.16844384E-02 0.12500000E+03</pdfrwt>
<pdfrwt beam="2">  1       21 0.50151864E-01 0.12500000E+03</pdfrwt>
<totfact> 0.58274833E+06</totfact>
</mgrwt>
</event>
<event>
 6      0 +9.8758382e+01 1.25000000e+02 7.54677100e-03 1.12640300e-01
       21 -1    0    0  502  501 +0.0000000000e+00 +0.0000000000e+00 +1.3273018355e+01 1.3273018355e+01 0.0000000000e+00 0.0000e+00 1.0000e+00
       21 -1    0    0  501  502 -0.0000000000e+00 -0.0000000000e+00 -2.9430005260e+02 2.9430005260e+02 0.0000000000e+00 0.0000e+00 1.0000e+00
       25  2    1    2    0    0 +0.0000000000e+00 +0.0000000000e+00 -2.8102703424e+02 3.0757307095e+02 1.2500000000e+02 0.0000e+00 0.0000e+00
      -15  1    3    3    0    0 +1.0299270777e+01 -2.3029339610e+01 -1.6307148288e+01 3.0091631324e+01 1.7770000000e+00 0.0000e+00 -1.0000e+00
       15  1    3    3    0    0 +7.7333070793e+00 -2.3865248467e+01 -4.0279586374e+01 4.7486386788e+01 1.7770000000e+00 0.0000e+00 -1.0000e+00
       22  1    3    3    0    0 -1.8032577856e+01 +4.6894588077e+01 -2.2444029958e+02 2.2999505284e+02 0.0000000000e+00 0.0000e+00 -1.0000e+00
<mgrwt>
<rscale>  2 0.12500000E+03</rscale>
<asrwt>0</asrwt>
<pdfrwt beam="1">  1       21 0.19519145E-02 0.12500000E+03</pdfrwt>
<pdfrwt beam="2">  1       21 0.43279418E-01 0.12500000E+03</pdfrwt>
<totfact> 0.63087815E+06</totfact>
</mgrwt>
</event>
<event>
 6      0 +9.8758382e+01 1.25000000e+02 7.54677100e-03 1.12640300e-01
       21 -1    0    0  502  501 +0.0000000000e+00 +0.0000000000e+00 +8.1237115937e+02 8.1237115937e+02 0.0000000000e+00 0.0000e+00 1.0000e+00
       21 -1    0    0  501  502 -0.0000000000e+00 -0.0000000000e+00 -4.8084547992e+00 4.8084547992e+00 0.0000000000e+00 0.0000e+00 1.0000e+00
       25  2    1    2    0    0 +0.0000000000e+00 +0.0000000000e+00 +8.0756270457e+02 8.1717961417e+02 1.2500000000e+02 0.0000e+00 0.0000e+00
      -15  1    3    3    0    0 -4.4092573119e+00 +1.7580398774e+01 +1.3444060093e+02 1.3566851101e+02 1.7770000000e+00 0.0000e+00 -1.0000e+00
       15  1    3    3    0    0 -1.6139080914e+01 -4.7690136939e+00 +1.4051518713e+01 2.1995825321e+01 1.7770000000e+00 0.0000e+00 -1.0000e+00
       22  1    3    3    0    0 +2.0548338226e+01 -1.2811385080e+01 +6.5907058486e+02 6.5951527778e+02 0.0000000000e+00 0.0000e+00 -1.0000e+00
<mgrwt>
<rscale>  2 0.12500000E+03</rscale>
<asrwt>0</asrwt>
<pdfrwt beam="1">  1       21 0.11946625E+00 0.12500000E+03</pdfrwt>
<pdfrwt beam="2">  1       21 0.70712627E-03 0.12500000E+03</pdfrwt>
<totfact> 0.27574697E+06</totfact>
</mgrwt>
</event>
<event>
 6      0 +9.8758382e+01 1.25000000e+02 7.54677100e-03 1.12640300e-01
       21 -1    0    0  502  501 +0.0000000000e+00 +0.0000000000e+00 +1.4762560805e+01 1.4762560805e+01 0.0000000000e+00 0.0000e+00 1.0000e+00
       21 -1    0    0  501  502 -0.0000000000e+00 -0.0000000000e+00 -2.6460517600e+02 2.6460517600e+02 0.0000000000e+00 0.0000e+00 1.0000e+00
       25  2    1    2    0    0 +0.0000000000e+00 +0.0000000000e+00 -2.4984261520e+02 2.7936773681e+02 1.2500000000e+02 0.0000e+00 0.0000e+00
      -15  1    3    3    0    0 +2.3196432793e+01 -1.4130215513e+00 -7.5829076995e+01 7.9330181968e+01 1.7770000000e+00 0.0000e+00 -1.0000e+00
       15  1    3    3    0    0 +1.5351158223e+01 -5.1076383466e+00 -1.5625098544e+02 1.5709638509e+02 1.7770000000e+00 0.0000e+00 -1.0000e+00
       22  1    3    3    0    0 -3.8547591016e+01 +6.5206598979e+00 -1.7762552759e+01 4.2941169746e+01 0.0000000000e+00 0.0000e+00 -1.0000e+00
<mgrwt>
<rscale>  2 0.12500000E+03</rscale>
<asrwt>0</asrwt>
<pdfrwt beam="1">  1       21 0.21709650E-02 0.12500000E+03</pdfrwt>
<pdfrwt beam="2">  1       21 0.38912523E-01 0.12500000E+03</pdfrwt>
<totfact> 0.66366881E+06</totfact>
</mgrwt>
</event>
<event>
 6      0 +9.8758382e+01 1.25000000e+02 7.54677100e-03 1.12640300e-01
       21 -1    0    0  502  501 +0.0000000000e+00 +0.0000000000e+00 +8.7865810924e+02 8.7865810924e+02 0.0000000000e+00 0.0000e+00 -1.0000e+00
       21 -1    0    0  501  502 -0.0000000000e+00 -0.0000000000e+00 -4.4456995946e+00 4.4456995946e+00 0.0000000000e+00 0.0000e+00 -1.0000e+00
       25  2    1    2    0    0 +0.0000000000e+00 +0.0000000000e+00 +8.7421240964e+02 8.8310380883e+02 1.2500000000e+02 0.0000e+00 0.0000e+00
      -15  1    3    3    0    0 -1.3397942099e+01 -4.0170260410e+01 +3.5298493054e+02 3.5552028577e+02 1.7770000000e+00 0.0000e+00 -1.0000e+00
       15  1    3    3    0    0 +3.0551106396e+01 +1.7186908250e+01 +4.4081364088e+02 4.4220875572e+02 1.7770000000e+00 0.0000e+00 -1.0000e+00
       22  1    3    3    0    0 -1.7153164297e+01 +2.2983352160e+01 +8.0413838175e+01 8.5374767302e+01 0.0000000000e+00 0.0000e+00 -1.0000e+00
<mgrwt>
<rscale>  2 0.12500000E+03</rscale>
<asrwt>0</asrwt>
<pdfrwt beam="1">  1       21 0.12921431E+00 0.12500000E+03</pdfrwt>
<pdfrwt beam="2">  1       21 0.65377996E-03 0.12500000E+03</pdfrwt>
<totfact> 0.25034003E+06</totfact>
</mgrwt>
</event>
<event>
 6      0 +9.8758382e+01 1.25000000e+02 7.54677100e-03 1.12640300e-01
       21 -1    0    0  502  501 +0.0000000000e+00 +0.0000000000e+00 +5.0220801060e+01 5.0220801060e+01 0.0000000000e+00 0.0000e+00 1.0000e+00
       21 -1    0    0  501  502 -0.0000000000e+00 -0.0000000000e+00 -7.7781515181e+01 7.7781515181e+01 0.0000000000e+00 0.0000e+00 1.0000e+00
       25  2    1    2    0    0 +0.0000000000e+00 +0.0000000000e+00 -2.7560714121e+01 1.2800231624e+02 1.2500000000e+02 0.0000e+00 0.0000e+00
      -15  1    3    3    0    0 -1.4506454027e+01 +1.9740302590e+01 -2.9469460509e+01 3.8363049754e+01 1.7770000000e+00 0.0000e+00 -1.0000e+00
       15  1    3    3    0    0 +1.7855276239e+01 +1.6815902040e+01 +3.3260291322e+01 4.1364116803e+01 1.7770000000e+00 0.0000e+00 -1.0000e+00
       22  1    3    3    0    0 -3.3488222128e+00 -3.6556204630e+01 -3.1351544936e+01 4.8275149684e+01 0.0000000000e+00 0.0000e+00 -1.0000e+00
<mgrwt>
<rscale>  2 0.12500000E+03</rscale>
<asrwt>0</asrwt>
<pdfrwt beam="1">  1       21 0.73854120E-02 0.12500000E+03</pdfrwt>
<pdfrwt beam="2">  1       21 0.11438458E-01 0.12500000E+03</pdfrwt>
<totfact> 0.88457273E+06</totfact>
</mgrwt>
</event>
<event>
 6      0 +9.8758382e+01 1.25000000e+02 7.54677100e-03 1.12640300e-01
       21 -1    0    0  502  501 +0.0000000000e+00 +0.0000000000e+00 +1.5118181728e+02 1.5118181728e+02 0.0000000000e+00 0.0000e+00 -1.0000e+00
       21 -1    0    0  501  502 -0.0000000000e+00 -0.0000000000e+00 -2.5838093960e+01 2.5838093960e+01 0.0000000000e+00 0.0000e+00 -1.0000e+00
       25  2    1    2    0    0 +0.0000000000e+00 +0.0000000000e+00 +1.2534372332e+02 1.7701991124e+02 1.2500000000e+02 0.0000e+00 0.0000e+00
      -15  1    3    3    0    0 +3.5265456795e+00 -3.8523556830e+01 +7.4431882425e+00 3.9434245719e+01 1.7770000000e+00 0.0000e+00 -1.0000e+00
       15  1    3    3    0    0 +1.0847397976e+01 -7.2548647748e+00 +6.4347776457e+01 6.5681756750e+01 1.7770000000e+00 0.0000e+00 -1.0000e+00
       22  1    3    3    0    0 -1.4373943655e+01 +4.5778421605e+01 +5.3552758621e+01 7.1903908773e+01 0.0000000000e+00 0.0000e+00 -1.0000e+00
<mgrwt>
<rscale>  2 0.12500000E+03</rscale>
<asrwt>0</asrwt>
<pdfrwt beam="1">  1       21 0.22232620E-01 0.12500000E+03</pdfrwt>
<pdfrwt beam="2">  1       21 0.37997198E-02 0.12500000E+03</pdfrwt>
<totfact> 0.80264788E+06</totfact>
</mgrwt>
</event>
<event>
 6      0 +9.8758382e+01 1.25000000e+02 7.54677100e-03 1.12640300e-01
       21 -1    0    0  502  501 +0.0000000000e+00 +0.0000000000e+00 +2.1020315729e+01 2.1020315729e+01 0.0000000000e+00 0.0000e+00 -1.0000e+00
       21 -1    0    0  501  502 -0.0000000000e+00 -0.0000000000e+00 -1.8583212785e+02 1.8583212785e+02 0.0000000000e+00 0.0000e+00 -1.0000e+00
       25  2    1    2    0    0 +0.0000000000e+00 +0.0000000000e+00 -1.6481181212e+02 2.0685244358e+02 1.2500000000e+02 0.0000e+00 0.0000e+00
      -15  1    3    3    0    0 -7.1054377590e+00 +4.1605166006e+01 -9.8402987026e+01 1.0708773351e+02 1.7770000000e+00 0.0000e+00 -1.0000e+00
       15  1    3    3    0    0 -5.3630772741e+00 +6.7615496914e+00 +6.8069120902e+00 1.1134313328e+01 1.7770000000e+00 0.0000e+00 -1.0000e+00
       22  1    3    3    0    0 +1.2468515033e+01 -4.8366715697e+01 -7.3215737181e+01 8.8630396735e+01 0.0000000000e+00 0.0000e+00 -1.0000e+00
<mgrwt>
<rscale>  2 0.12500000E+03</rscale>
<asrwt>0</asrwt>
<pdfrwt beam="1">  1       21 0.30912230E-02 0.12500000E+03</pdfrwt>
<pdfrwt beam="2">  1       21 0.27328253E-01 0.12500000E+03</pdfrwt>
<totfact> 0.75830768E+06</totfact>
</mgrwt>
</event>
<event>
 6      0 +9.8758382e+01 1.25000000e+02 7.54677100e-03 1.12640300e-01
       21 -1    0    0  502  501 +0.0000000000e+00 +0.0000000000e+00 +6.1455794778e+00 6.1455794778e+00 0.0000000000e+00 0.0000e+00 -1.0000e+00
       21 -1    0    0  501  502 -0.0000000000e+00 -0.0000000000e+00 -6.3561947479e+02 6.3561947479e+02 0.0000000000e+00 0.0000e+00 -1.0000e+00
       25  2    1    2    0    0 +0.0000000000e+00 +0.0000000000e+00 -6.2947389532e+02 6.4176505427e+02 1.2500000000e+02 0.0000e+00 0.0000e+00
      -15  1    3    3    0    0 +4.7891029257e+01 -2.8291706283e+01 -2.1817153480e+02 2.2515760625e+02 1.7770000000e+00 0.0000e+00 -1.0000e+00
       15  1    3    3    0    0 -1.1191455120e+01 -1.4891768693e+00 -2.5793153113e+01 2.8211890967e+01 1.7770000000e+00 0.0000e+00 -1.0000e+00
       22  1    3    3    0    0 -3.6699574137e+01 +2.9780883152e+01 -3.8550920755e+02 3.8839555719e+02 0.0000000000e+00 0.0000e+00 -1.0000e+00
<mgrwt>
<rscale>  2 0.12500000E+03</rscale>
<asrwt>0</asrwt>
<pdfrwt beam="1">  1       21 0.90376176E-03 0.12500000E+03</pdfrwt>
<pdfrwt beam="2">  1       21 0.93473444E-01 0.12500000E+03</pdfrwt>
<totfact> 0.36011586E+06</totfact>
</mgrwt>
</event>
<event>
 6      0 +9.8758382e+01 1.25000000e+02 7.54677100e-03 1.12640300e-01
       21 -1    0    0  502  501 +0.0000000000e+00 +0.0000000000e+00 +1.9855590758e+01 1.9855590758e+01 0.0000000000e+00 0.0000e+00 1.0000e+00
       21 -1    0    0  501  502 -0.0000000000e+00 -0.0000000000e+00 -1.9673300319e+02 1.9673300319e+02 0.0000000000e+00 0.0000e+00 1.0000e+00
       25  2    1    2    0    0 +0.0000000000e+00 +0.0000000000e+00 -1.7687741243e+02 2.1658859395e+02 1.2500000000e+02 0.0000e+00 0.0000e+00
      -15  1    3    3    0    0 -1.1761007675e+01 +1.5082218550e+01 -1.5784402850e+02 1.5900845789e+02 1.7770000000e+00 0.0000e+00 -1.0000e+00
       15  1    3    3    0    0 +1.5596024785e+01 +1.6351200350e+01 -7.3774362126e+00 2.3836569301e+01 1.7770000000e+00 0.0000e+00 -1.0000e+00
       22  1    3    3    0    0 -3.8350171107e+00 -3.1433418900e+01 -1.1655947707e+01 3.3743566748e+01 0.0000000000e+00 0.0000e+00 -1.0000e+00
<mgrwt>
<rscale>  2 0.12500000E+03</rscale>
<asrwt>0</asrwt>
<pdfrwt beam="1">  1       21 0.29199397E-02 0.12500000E+03</pdfrwt>
<pdfrwt beam="2">  1       21 0.28931326E-01 0.12500000E+03</pdfrwt>
<totfact> 0.74463396E+06</totfact>
</mgrwt>
</event>
<event>
 6      0 +9.8758382e+01 1.25000000e+02 7.54677100e-03 1.12640300e-01
       21 -1    0    0  502  501 +0.0000000000e+00 +0.0000000000e+00 +9.5499487073e+00 9.5499487073e+00 0.0000000000e+00 0.0000e+00 -1.0000e+00
       21 -1    0    0  501  502 -0.0000000000e+00 -0.0000000000e+00 -4.0903361052e+02 4.0903361052e+02 0.0000000000e+00 0.0000e+00 -1.0000e+00
       25  2    1    2    0    0 +0.0000000000e+00 +0.0000000000e+00 -3.9948366181e+02 4.1858355923e+02 1.2500000000e+02 0.0000e+00 0.0000e+00
      -15  1    3    3    0    0 -7.4384914610e+00 -2.5436740480e+01 -2.5767567922e+01 3.7006542761e+01 1.7770000000e+00 0.0000e+00 -1.0000e+00
       15  1    3    3    0    0 +3.3190962138e+01 +3.4507044001e+00 -9.2913408832e+01 9.8740096203e+01 1.7770000000e+00 0.0000e+00 -1.0000e+00
       22  1    3    3    0    0 -2.5752470677e+01 +2.1986036080e+01 -2.8080268500e+02 2.8283692021e+02 0.0000000000e+00 0.0000e+00 -1.0000e+00
<mgrwt>
<rscale>  2 0.12500000E+03</rscale>
<asrwt>0</asrwt>
<pdfrwt beam="1">  1       21 0.14044046E-02 0.12500000E+03</pdfrwt>
<pdfrwt beam="2">  1       21 0.60151986E-01 0.12500000E+03</pdfrwt>
<totfact> 0.51973474E+06</totfact>
</mgrwt>
</event>
<event>
 6      0 +9.8758382e+01 1.25000000e+02 7.54677100e-03 1.12640300e-01
       21 -1    0    0  502  501 +0.0000000000e+00 +0.0000000000e+00 +4.2341343212e+01 4.2341343212e+01 0.0000000000e+00 0.0000e+00 -1.0000e+00
       21 -1    0    0  501  502 -0.0000000000e+00 -0.0000000000e+00 -9.2256166282e+01 9.2256166282e+01 0.0000000000e+00 0.0000e+00 -1.0000e+00
       25  2    1    2    0    0 +0.0000000000e+00 +0.0000000000e+00 -4.9914823070e+01 1.3459750949e+02 1.2500000000e+02 0.0000e+00 0.0000e+00
      -15  1    3    3    0    0 -3.8851761857e+01 -3.6795321658e-01 -9.4723232932e+00 4.0030955853e+01 1.7770000000e+00 0.0000e+00 -1.0000e+00
       15  1    3    3    0    0 +2.4662210424e+01 -1.6692562242e+00 +2.0374756702e+01 3.2082697503e+01 1.7770000000e+00 0.0000e+00 -1.0000e+00
       22  1    3    3    0    0 +1.4189551432e+01 +2.0372094408e+00 -6.0817256481e+01 6.2483856140e+01 0.0000000000e+00 0.0000e+00 -1.0000e+00
<mgrwt>
<rscale>  2 0.12500000E+03</rscale>
<asrwt>0</asrwt>
<pdfrwt beam="1">  1       21 0.62266682E-02 0.12500000E+03</pdfrwt>
<pdfrwt beam="2">  1       21 0.13567083E-01 0.12500000E+03</pdfrwt>
<totfact> 0.87276379E+06</totfact>
</mgrwt>
</event>
<event>
 6      0 +9.8758382e+01 1.25000000e+02 7.54677100e-03 1.12640300e-01
       21 -1    0    0  502  501 +0.0000000000e+00 +0.0000000000e+00 +1.2882883370e+02 1.2882883370e+02 0.0000000000e+00 0.0000e+00 1.0000e+00
       21 -1    0    0  501  502 -0.0000000000e+00 -0.0000000000e+00 -3.0321240113e+01 3.0321240113e+01 0.0000000000e+00 0.0000e+00 1.0000e+00
       25  2    1    2    0    0 +0.0000000000e+00 +0.0000000000e+00 +9.8507593585e+01 1.5915007381e+02 1.2500000000e+02 0.0000e+00 0.0000e+00
      -15  1    3    3    0    0 -1.3330604373e+01 -1.4985140700e+01 -1.8571889150e-01 2.0135830633e+01 1.7770000000e+00 0.0000e+00 -1.0000e+00
       15  1    3    3    0    0 +4.3252085230e+01 -1.9428378019e+01 +2.8629017150e+01 5.5416451539e+01 1.7770000000e+00 0.0000e+00 -1.0000e+00
       22  1    3    3    0    0 -2.9921480857e+01 +3.4413518719e+01 +7.0064295327e+01 8.3597791639e+01 0.0000000000e+00 0.0000e+00 -1.0000e+00
<mgrwt>
<rscale>  2 0.12500000E+03</rscale>
<asrwt>0</asrwt>
<pdfrwt beam="1">  1       21 0.18945417E-01 0.12500000E+03</pdfrwt>
<pdfrwt beam="2">  1       21 0.44590059E-02 0.12500000E+03</pdfrwt>
<totfact> 0.83117096E+06</totfact>
</mgrwt>
</event>
<event>
 6      0 +9.8758382e+01 1.25000000e+02 7.54677100e-03 1.12640300e-01
       21 -1    0    0  502  501 +0.0000000000e+00 +0.0000000000e+00 +3.1960824193e+01 3.1960824193e+01 0.0000000000e+00 0.0000e+00 1.0000e+00
       21 -1    0    0  501  502 -0.0000000000e+00 -0.0000000000e+00 -1.2221993952e+02 1.2221993952e+02 0.0000000000e+00 0.0000e+00 1.0000e+00
       25  2    1    2    0    0 +0.0000000000e+00 +0.0000000000e+00 -9.0259115331e+01 1.5418076372e+02 1.2500000000e+02 0.0000e+00 0.0000e+00
      -15  1    3    3    0    0 +2.9586648147e+00 -1.9376410945e+01 -3.8893976456e+01 4.3590115074e+01 1.7770000000e+00 0.0000e+00 -1.0000e+00
       15  1    3    3    0    0 -7.3535648582e+00 -3.2582810294e+01 -4.7777113412e+01 5.8322592001e+01 1.7770000000e+00 0.0000e+00 -1.0000e+00
       22  1    3    3    0    0 +4.3949000435e+00 +5.1959221240e+01 -3.5880254610e+00 5.2268056641e+01 0.0000000000e+00 0.0000e+00 -1.0000e+00
<mgrwt>
<rscale>  2 0.12500000E+03</rscale>
<asrwt>0</asrwt>
<pdfrwt beam="1">  1       21 0.47001212E-02 0.12500000E+03</pdfrwt>
<pdfrwt beam="2">  1       21 0.17973521E-01 0.12500000E+03</pdfrwt>
<totfact> 0.83930320E+06</totfact>
</mgrwt>
</event>
<event>
 6      0 +9.8758382e+01 1.25000000e+02 7.54677100e-03 1.12640300e-01
       21 -1    0    0  502  501 +0.0000000000e+00 +0.0000000000e+00 +3.6190995194e+02 3.6190995194e+02 0.0000000000e+00 0.0000e+00 1.0000e+00
       21 -1    0    0  501  502 -0.0000000000e+00 -0.0000000000e+00 -1.0793430739e+01 1.0793430739e+01 0.0000000000e+00 0.0000e+00 1.0000e+00
       25  2    1    2    0    0 +0.0000000000e+00 +0.0000000000e+00 +3.5111652120e+02 3.7270338268e+02 1.2500000000e+02 0.0000e+00 0.0000e+00
      -15  1    3    3    0    0 +3.1783009838e+01 -1.4692590024e+01 +1.3605030895e+02 1.4049511098e+02 1.7770000000e+00 0.0000e+00 -1.0000e+00
       15  1    3    3    0    0 -1.1709158560e+01 -3.3355334625e+01 +8.1782468450e+01 8.9113481678e+01 1.7770000000e+00 0.0000e+00 -1.0000e+00
       22  1    3    3    0    0 -2.0073851278e+01 +4.8047924649e+01 +1.3328374378e+02 1.4309479000e+02 0.0000000000e+00 0.0000e+00 -1.0000e+00
<mgrwt>
<rscale>  2 0.12500000E+03</rscale>
<asrwt>0</asrwt>
<pdfrwt beam="1">  1       21 0.53222044E-01 0.12500000E+03</pdfrwt>
<pdfrwt beam="2">  1       21 0.15872695E-02 0.12500000E+03</pdfrwt>
<totfact> 0.56254591E+06</totfact>
</mgrwt>
</event>
<event>
 6      0 +9.8758382e+01 1.25000000e+02 7.54677100e-03 1.12640300e-01
       21 -1    0    0  502  501 +0.0000000000e+00 +0.0000000000e+00 +5.4793681156e+01 5.4793681156e+01 0.0000000000e+00 0.0000e+00 1.0000e+00
       21 -1    0    0  501  502 -0.0000000000e+00 -0.0000000000e+00 -7.1290154586e+01 7.1290154586e+01 0.0000000000e+00 0.0000e+00 1.0000e+00
       25  2    1    2    0    0 +0.0000000000e+00 +0.0000000000e+00 -1.6496473430e+01 1.2608383574e+02 1.2500000000e+02 0.0000e+00 0.0000e+00
      -15  1    3    3    0    0 +4.1415376659e+01 +5.7055178542e+00 -3.9970925400e+01 5.7867252951e+01 1.7770000000e+00 0.0000e+00 -1.0000e+00
       15  1    3    3    0    0 +3.2762383064e+00 -1.1310974755e+01 -7.0187280366e+00 1.3823608776e+01 1.7770000000e+00 0.0000e+00 -1.0000e+00
       22  1    3    3    0    0 -4.4691614965e+01 +5.6054569012e+00 +3.0493180007e+01 5.4392974015e+01 0.0000000000e+00 0.0000e+00 -1.0000e+00
<mgrwt>
<rscale>  2 0.12500000E+03</rscale>
<asrwt>0</asrwt>
<pdfrwt beam="1">  1       21 0.80578943E-02 0.12500000E+03</pdfrwt>
<pdfrwt beam="2">  1       21 0.10483846E-01 0.12500000E+03</pdfrwt>
<totfact> 0.88796628E+06</totfact>
</mgrwt>
</event>
<event>
 6      0 +9.8758382e+01 1.25000000e+02 7.54677100e-03 1.12640300e-01
       21 -1    0    0  502  501 +0.0000000000e+00 +0.0000000000e+00 +7.5605295002e+00 7.5605295002e+00 0.0000000000e+00 0.0000e+00 -1.0000e+00
       21 -1    0    0  501  502 -0.0000000000e+00 -0.0000000000e+00 -5.1666354849e+02 5.1666354849e+02 0.0000000000e+00 0.0000e+00 -1.0000e+00
       25  2    1    2    0    0 +0.0000000000e+00 +0.0000000000e+00 -5.0910301899e+02 5.2422407799e+02 1.2500000000e+02 0.0000e+00 0.0000e+00
      -15  1    3    3    0    0 +3.3434932038e+01 -3.5445463223e+01 -2.7035205489e+02 2.7471379080e+02 1.7770000000e+00 0.0000e+00 -1.0000e+00
       15  1    3    3    0    0 -1.8110678865e+01 -2.0561281052e+00 -1.5908290674e+02 1.6013354832e+02 1.7770000000e+00 0.0000e+00 -1.0000e+00
       22  1    3    3    0    0 -1.5324253173e+01 +3.7501591328e+01 -7.9668057357e+01 8.9376738867e+01 0.0000000000e+00 0.0000e+00 -1.0000e+00
<mgrwt>
<rscale>  2 0.12500000E+03</rscale>
<asrwt>0</asrwt>
<pdfrwt beam="1">  1       21 0.11118425E-02 0.12500000E+03</pdfrwt>
<pdfrwt beam="2">  1       21 0.75979938E-01 0.12500000E+03</pdfrwt>
<totfact> 0.43571847E+06</totfact>
</mgrwt>
</event>
<event>
 6      0 +9.8758382e+01 1.25000000e+02 7.54677100e-03 1.12640300e-01
       21 -1    0    0  502  501 +0.0000000000e+00 +0.0000000000e+00 +8.4594780330e+01 8.4594780330e+01 0.0000000000e+00 0.0000e+00 -1.0000e+00
       21 -1    0    0  501  502 -0.0000000000e+00 -0.0000000000e+00 -4.6176016827e+01 4.6176016827e+01 0.0000000000e+00 0.0000e+00 -1.0000e+00
       25  2    1    2    0    0 +0.0000000000e+00 +0.0000000000e+00 +3.8418763502e+01 1.3077079716e+02 1.2500000000e+02 0.0000e+00 0.0000e+00
      -15  1    3    3    0    0 +2.0663595938e+01 +1.1772847795e+00 +7.6917149460e+01 7.9672930200e+01 1.7770000000e+00 0.0000e+00 -1.0000e+00
       15  1    3    3    0    0 +1.0562698597e+00 -6.2514673800e+00 -2.3034018239e+01 2.3956633229e+01 1.7770000000e+00 0.0000e+00 -1.0000e+00
       22  1    3    3    0    0 -2.1719865798e+01 +5.0741826004e+00 -1.5464367719e+01 2.7141233728e+01 0.0000000000e+00 0.0000e+00 -1.0000e+00
<mgrwt>
<rscale>  2 0.12500000E+03</rscale>
<asrwt>0</asrwt>
<pdfrwt beam="1">  1       21 0.12440409E-01 0.12500000E+03</pdfrwt>
<pdfrwt beam="2">  1       21 0.67905907E-02 0.12500000E+03</pdfrwt>
<totfact> 0.87957582E+06</totfact>
</mgrwt>
</event>
<event>
 6      0 +9.8758382e+01 1.25000000e+02 7.54677100e-03 1.12640300e-01
       21 -1    0    0  502  501 +0.0000000000e+00 +0.0000000000e+00 +3.9957239759e+01 3.9957239759e+01 0.0000000000e+00 0.0000e+00 -1.0000e+00
       21 -1    0    0  501  502 -0.0000000000e+00 -0.0000000000e+00 -9.7760756838e+01 9.7760756838e+01 0.0000000000e+00 0.0000e+00 -1.0000e+00
       25  2    1    2    0    0 +0.0000000000e+00 +0.0000000000e+00 -5.7803517079e+01 1.3771799660e+02 1.2500000000e+02 0.0000e+00 0.0000e+00
      -15  1    3    3    0    0 -2.5319793704e+01 -3.1463505458e+01 +5.2121194550e+00 4.0759882815e+01 1.7770000000e+00 0.0000e+00 -1.0000e+00
       15  1    3    3    0    0 -1.1345901082e+01 -1.0718177433e+01 -5.2059064803e+00 1.6548957373e+01 1.7770000000e+00 0.0000e+00 -1.0000e+00
       22  1    3    3    0    0 +3.6665694786e+01 +4.2181682890e+01 -5.7809730052e+01 8.0409156408e+01 0.0000000000e+00 0.0000e+00 -1.0000e+00
<mgrwt>
<rscale>  2 0.12500000E+03</rscale>
<asrwt>0</asrwt>
<pdfrwt beam="1">  1       21 0.58760647E-02 0.12500000E+03</pdfrwt>
<pdfrwt beam="2">  1       21 0.14376582E-01 0.12500000E+03</pdfrwt>
<totfact> 0.86733945E+06</totfact>
</mgrwt>
</event>
<event>
 6      0 +9.8758382e+01 1.25000000e+02 7.54677100e-03 1.12640300e-01
       21 -1    0    0  502  501 +0.0000000000e+00 +0.0000000000e+00 +5.4942999496e+02 5.4942999496e+02 0.0000000000e+00 0.0000e+00 1.0000e+00
       21 -1    0    0  501  502 -0.0000000000e+00 -0.0000000000e+00 -7.1096409658e+00 7.1096409658e+00 0.0000000000e+00 0.0000e+00 1.0000e+00
       25  2    1    2    0    0 +0.0000000000e+00 +0.0000000000e+00 +5.4232035400e+02 5.5653963593e+02 1.2500000000e+02 0.0000e+00 0.0000e+00
      -15  1    3    3    0    0 -3.7655380506e+00 +1.3082259581e+01 +6.9162296671e+01 7.0511742302e+01 1.7770000000e+00 0.0000e+00 -1.0000e+00
       15  1    3    3    0    0 -2.6816253250e+01 +4.0034613714e+01 +1.6838665137e+02 1.7515451414e+02 1.7770000000e+00 0.0000e+00 -1.0000e+00
       22  1    3    3    0    0 +3.0581791301e+01 -5.3116873295e+01 +3.0477140598e+02 3.1087337952e+02 0.0000000000e+00 0.0000e+00 -1.0000e+00
<mgrwt>
<rscale>  2 0.12500000E+03</rscale>
<asrwt>0</asrwt>
<pdfrwt beam="1">  1       21 0.80798500E-01 0.12500000E+03</pdfrwt>
<pdfrwt beam="2">  1       21 0.10455358E-02 0.12500000E+03</pdfrwt>
<totfact> 0.41355731E+06</totfact>
</mgrwt>
</event>
<event>
 6      0 +9.8758382e+01 1.25000000e+02 7.54677100e-03 1.12640300e-01
       21 -1    0    0  502  501 +0.0000000000e+00 +0.0000000000e+00 +1.3441357239e+02 1.3441357239e+02 0.0000000000e+00 0.0000e+00 1.0000e+00
       21 -1    0    0  501  502 -0.0000000000e+00 -0.0000000000e+00 -2.9061425351e+01 2.9061425351e+01 0.0000000000e+00 0.0000e+00 1.0000e+00
       25  2    1    2    0    0 +0.0000000000e+00 +0.0000000000e+00 +1.0535214703e+02 1.6347499774e+02 1.2500000000e+02 0.0000e+00 0.0000e+00
      -15  1    3    3    0    0 +2.8130493071e+00 -3.0858177526e+01 -5.4454871392e+00 3.1511131776e+01 1.7770000000e+00 0.0000e+00 -1.0000e+00
       15  1    3    3    0    0 +2.3911853970e+00 -2.0152877096e+01 +3.3374170865e+01 3.9100501695e+01 1.7770000000e+00 0.0000e+00 -1.0000e+00
       22  1    3    3    0    0 -5.2042347042e+00 +5.1011054621e+01 +7.7423463297e+01 9.2863364258e+01 0.0000000000e+00 0.0000e+00 -1.0000e+00
<mgrwt>
<rscale>  2 0.12500000E+03</rscale>
<asrwt>0</asrwt>
<pdfrwt beam="1">  1       21 0.19766702E-01 0.12500000E+03</pdfrwt>
<pdfrwt beam="2">  1       21 0.42737391E-02 0.12500000E+03</pdfrwt>
<totfact> 0.82413673E+06</totfact>
</mgrwt>
</event>
<event>
 6      0 +9.8758382e+01 1.25000000e+02 7.54677100e-03 1.12640300e-01
       21 -1    0    0  502  501 +0.0000000000e+00 +0.0000000000e+00 +3.9375844696e+02 3.9375844696e+02 0.0000000000e+00 0.0000e+00 -1.0000e+00
       21 -1    0    0  501  502 -0.0000000000e+00 -0.0000000000e+00 -9.9204221018e+00 9.9204221018e+00 0.0000000000e+00 0.0000e+00 -1.0000e+00
       25  2    1    2    0    0 +0.0000000000e+00 +0.0000000000e+00 +3.8383802486e+02 4.0367886906e+02 1.2500000000e+02 0.0000e+00 0.0000e+00
      -15  1    3    3    0    0 -6.1153809021e+00 +7.1667208617e+00 +3.8536434516e+01 3.9711135538e+01 1.7770000000e+00 0.0000e+00 -1.0000e+00
       15  1    3    3    0    0 +1.0740298235e+01 +3.0234591098e+01 +3.1207698195e+02 3.1372708665e+02 1.7770000000e+00 0.0000e+00 -1.0000e+00
       22  1    3    3    0    0 -4.6249173334e+00 -3.7401311960e+01 +3.3224608427e+01 5.0240646908e+01 0.0000000000e+00 0.0000e+00 -1.0000e+00
<mgrwt>
<rscale>  2 0.12500000E+03</rscale>
<asrwt>0</asrwt>
<pdfrwt beam="1">  1       21 0.57905644E-01 0.12500000E+03</pdfrwt>
<pdfrwt beam="2">  1       21 0.14588859E-02 0.12500000E+03</pdfrwt>
<totfact> 0.53317462E+06</totfact>
</mgrwt>
</event>
<event>
 6      0 +9.8758382e+01 1.25000000e+02 7.54677100e-03 1.12640300e-01
       21 -1    0    0  502  501 +0.0000000000e+00 +0.0000000000e+00 +1.4634612020e+02 1.4634612020e+02 0.0000000000e+00 0.0000e+00 -1.0000e+00
       21 -1    0    0  501  502 -0.0000000000e+00 -0.0000000000e+00 -2.6691858962e+01 2.6691858962e+01 0.0000000000e+00 0.0000e+00 -1.0000e+00
       25  2    1    2    0    0 +0.0000000000e+00 +0.0000000000e+00 +1.1965426124e+02 1.7303797916e+02 1.2500000000e+02 0.0000e+00 0.0000e+00
      -15  1    3    3    0    0 +1.5126008636e+01 -4.0474822693e+01 +8.3721038658e+01 9.4230448648e+01 1.7770000000e+00 0.0000e+00 -1.0000e+00
       15  1    3    3    0    0 -7.5301811901e+00 +2.6875134275e+01 +5.0341703202e+01 5.7588378006e+01 1.7770000000e+00 0.0000e+00 -1.0000e+00
       22  1    3    3    0    0 -7.5958274461e+00 +1.3599688418e+01 -1.4408480616e+01 2.1219152513e+01 0.0000000000e+00 0.0000e+00 -1.0000e+00
<mgrwt>
<rscale>  2 0.12500000E+03</rscale>
<asrwt>0</asrwt>
<pdfrwt beam="1">  1       21 0.21521488E-01 0.12500000E+03</pdfrwt>
<pdfrwt beam="2">  1       21 0.39252735E-02 0.12500000E+03</pdfrwt>
<totfact> 0.80884840E+06</totfact>
</mgrwt>
</event>
<event>
 6      0 +9.8758382e+01 1.25000000e+02 7.54677100e-03 1.12640300e-01
       21 -1    0    0  502  501 +0.0000000000e+00 +0.0000000000e+00 +2.4375191846e+01 2.4375191846e+01 0.0000000000e+00 0.0000e+00 -1.0000e+00
       21 -1    0    0  501  502 -0.0000000000e+00 -0.0000000000e+00 -1.6025514895e+02 1.6025514895e+02 0.0000000000e+00 0.0000e+00 -1.0000e+00
       25  2    1    2    0    0 +0.0000000000e+00 +0.0000000000e+00 -1.3587995711e+02 1.8463034080e+02 1.2500000000e+02 0.0000e+00 0.0000e+00
      -15  1    3    3    0    0 -7.5126758998e+00 -6.9931976211e+00 +1.1472790782e+01 1.5496056578e+01 1.7770000000e+00 0.0000e+00 -1.0000e+00
       15  1    3    3    0    0 +2.4832451888e+01 -3.0552081107e+01 -5.2375880380e+01 6.5547470594e+01 1.7770000000e+00 0.0000e+00 -1.0000e+00
       22  1    3    3    0    0 -1.7319775989e+01 +3.7545278728e+01 -9.4976867515e+01 1.0358681363e+02 0.0000000000e+00 0.0000e+00 -1.0000e+00
<mgrwt>
<rscale>  2 0.12500000E+03</rscale>
<asrwt>0</asrwt>
<pdfrwt beam="1">  1       21 0.35845868E-02 0.12500000E+03</pdfrwt>
<pdfrwt beam="2">  1       21 0.23566935E-01 0.12500000E+03</pdfrwt>
<totfact> 0.79102833E+06</totfact>
</mgrwt>
</event>
<event>
 6      0 +9.8758382e+01 1.25000000e+02 7.54677100e-03 1.12640300e-01
       21 -1    0    0  502  501 +0.0000000000e+00 +0.0000000000e+00 +2.4746739060e+01 2.4746739060e+01 0.0000000000e+00 0.0000e+00 1.0000e+00
       21 -1    0    0  501  502 -0.0000000000e+00 -0.0000000000e+00 -1.5784908026e+02 1.5784908026e+02 0.0000000000e+00 0.0000e+00 1.0000e+00
       25  2    1    2    0    0 +0.0000000000e+00 +0.0000000000e+00 -1.3310234120e+02 1.8259581932e+02 1.2500000000e+02 0.0000e+00 0.0000e+00
      -15  1    3    3    0    0 +1.9323243667e+01 +3.2961976058e+01 -2.9016297536e+01 4.8010237066e+01 1.7770000000e+00 0.0000e+00 -1.0000e+00
       15  1    3    3    0    0 -3.2640095295e+01 +1.3618714670e+01 -3.1975917007e+01 4.7712285708e+01 1.7770000000e+00 0.0000e+00 -1.0000e+00
       22  1    3    3    0    0 +1.3316851627e+01 -4.6580690728e+01 -7.2110126656e+01 8.6873296544e+01 0.0000000000e+00 0.0000e+00 -1.0000e+00
<mgrwt>
<rscale>  2 0.12500000E+03</rscale>
<asrwt>0</asrwt>
<pdfrwt beam="1">  1       21 0.36392263E-02 0.12500000E+03</pdfrwt>
<pdfrwt beam="2">  1       21 0.23213100E-01 0.12500000E+03</pdfrwt>
<totfact> 0.79410725E+06</totfact>
</mgrwt>
</event>
<event>
 6      0 +9.8758382e+01 1.25000000e+02 7.54677100e-03 1.12640300e-01
       21 -1    0    0  502  501 +0.0000000000e+00 +0.0000000000e+00 +3.1150074652e+00 3.1150074652e+00 0.0000000000e+00 0.0000e+00 1.0000e+00
       21 -1    0    0  501  502 -0.0000000000e+00 -0.0000000000e+00 -1.2540098358e+03 1.2540098358e+03 0.0000000000e+00 0.0000e+00 1.0000e+00
       25  2    1    2    0    0 +0.0000000000e+00 +0.0000000000e+00 -1.2508948283e+03 1.2571248433e+03 1.2500000000e+02 0.0000e+00 0.0000e+00
      -15  1    3    3    0    0 +1.7333665148e+01 -6.4328740713e+00 -4.6268002447e+01 4.9857031557e+01 1.7770000000e+00 0.0000e+00 -1.0000e+00
       15  1    3    3    0    0 +1.3752034374e+01 -2.9223445312e+01 -4.5209645234e+02 4.5325212427e+02 1.7770000000e+00 0.0000e+00 -1.0000e+00
       22  1    3    3    0    0 -3.1085699522e+01 +3.5656319383e+01 -7.5253036653e+02 7.5401568045e+02 0.0000000000e+00 0.0000e+00 -1.0000e+00
<mgrwt>
<rscale>  2 0.12500000E+03</rscale>
<asrwt>0</asrwt>
<pdfrwt beam="1">  1       21 0.45808846E-03 0.12500000E+03</pdfrwt>
<pdfrwt beam="2">  1       21 0.18441356E+00 0.12500000E+03</pdfrwt>
<totfact> 0.14812163E+06</totfact>
</mgrwt>
</event>
<event>
 6      0 +9.8758382e+01 1.25000000e+02 7.54677100e-03 1.12640300e-01
       21 -1    0    0  502  501 +0.0000000000e+00 +0.0000000000e+00 +4.8801533223e+01 4.8801533223e+01 0.0000000000e+00 0.0000e+00 -1.0000e+00
       21 -1    0    0  501  502 -0.0000000000e+00 -0.0000000000e+00 -8.0043591707e+01 8.0043591707e+01 0.0000000000e+00 0.0000e+00 -1.0000e+00
       25  2    1    2    0    0 +0.0000000000e+00 +0.0000000000e+00 -3.1242058484e+01 1.2884512493e+02 1.2500000000e+02 0.0000e+00 0.0000e+00
      -15  1    3    3    0    0 -1.3742511202e+01 +4.9310916755e+01 -2.9748487882e+01 5.9233043021e+01 1.7770000000e+00 0.0000e+00 -1.0000e+00
       15  1    3    3    0    0 +2.5645183837e+00 -4.8080520722e+01 +1.4268182676e+01 5.0249895456e+01 1.7770000000e+00 0.0000e+00 -1.0000e+00
       22  1    3    3    0    0 +1.1177992818e+01 -1.2303960330e+00 -1.5761753279e+01 1.9362186453e+01 0.0000000000e+00 0.0000e+00 -1.0000e+00
<mgrwt>
<rscale>  2 0.12500000E+03</rscale>
<asrwt>0</asrwt>
<pdfrwt beam="1">  1       21 0.71766962E-02 0.12500000E+03</pdfrwt>
<pdfrwt beam="2">  1       21 0.11771116E-01 0.12500000E+03</pdfrwt>
<totfact> 0.88307173E+06</totfact>
</mgrwt>
</event>
<event>
 6      0 +9.8758382e+01 1.25000000e+02 7.54677100e-03 1.12640300e-01
       21 -1    0    0  502  501 +0.0000000000e+00 +0.0000000000e+00 +6.8527674396e+00 6.8527674396e+00 0.0000000000e+00 0.0000e+00 1.0000e+00
       21 -1    0    0  501  502 -0.0000000000e+00 -0.0000000000e+00 -5.7002518099e+02 5.7002518099e+02 0.0000000000e+00 0.0000e+00 1.0000e+00
       25  2    1    2    0    0 +0.0000000000e+00 +0.0000000000e+00 -5.6317241355e+02 5.7687794843e+02 1.2500000000e+02 0.0000e+00 0.0000e+00
      -15  1    3    3    0    0 -1.8242010022e+01 -1.6567857567e+01 -1.4008536161e+02 1.4224742915e+02 1.7770000000e+00 0.0000e+00 -1.0000e+00
       15  1    3    3    0    0 +4.7978838479e+01 -1.8970689480e+01 -2.6065630208e+02 2.6571925325e+02 1.7770000000e+00 0.0000e+00 -1.0000e+00
       22  1    3    3    0    0 -2.9736828457e+01 +3.5538547047e+01 -1.6243074984e+02 1.6891126601e+02 0.0000000000e+00 0.0000e+00 -1.0000e+00
<mgrwt>
<rscale>  2 0.12500000E+03</rscale>
<asrwt>0</asrwt>
<pdfrwt beam="1">  1       21 0.10077597E-02 0.12500000E+03</pdfrwt>
<pdfrwt beam="2">  1       21 0.83827247E-01 0.12500000E+03</pdfrwt>
<totfact> 0.40014723E+06</totfact>
</mgrwt>
</event>
<event>
 6      0 +9.8758382e+01 1.25000000e+02 7.54677100e-03 1.12640300e-01
       21 -1    0    0  502  501 +0.0000000000e+00 +0.0000000000e+00 +1.4004287958e+02 1.4004287958e+02 0.0000000000e+00 0.0000e+00 -1.0000e+00
       21 -1    0    0  501  502 -0.0000000000e+00 -0.0000000000e+00 -2.7893242496e+01 2.7893242496e+01 0.0000000000e+00 0.0000e+00 -1.0000e+00
       25  2    1    2    0    0 +0.0000000000e+00 +0.0000000000e+00 +1.1214963708e+02 1.6793612208e+02 1.2500000000e+02 0.0000e+00 0.0000e+00
      -15  1    3    3    0    0 +1.6440346062e+01 +5.1812995110e+01 +5.0406726573e+01 7.4154347504e+01 1.7770000000e+00 0.0000e+00 -1.0000e+00
       15  1    3    3    0    0 -1.4623140511e+01 -2.3683317537e+01 +5.9246495980e+01 6.5483133575e+01 1.7770000000e+00 0.0000e+00 -1.0000e+00
       22  1    3    3    0    0 -1.8172055509e+00 -2.8129677573e+01 +2.4964145196e+00 2.8298640990e+01 0.0000000000e+00 0.0000e+00 -1.0000e+00
<mgrwt>
<rscale>  2 0.12500000E+03</rscale>
<asrwt>0</asrwt>
<pdfrwt beam="1">  1       21 0.20594541E-01 0.12500000E+03</pdfrwt>
<pdfrwt beam="2">  1       21 0.41019475E-02 0.12500000E+03</pdfrwt>
<totfact> 0.81693211E+06</totfact>
</mgrwt>
</event>
<event>
 6      0 +9.8758382e+01 1.25000000e+02 7.54677100e-03 1.12640300e-01
       21 -1    0    0  502  501 +0.0000000000e+00 +0.0000000000e+00 +1.2126198390e+02 1.2126198390e+02 0.0000000000e+00 0.0000e+00 -1.0000e+00
       21 -1    0    0  501  502 -0.0000000000e+00 -0.0000000000e+00 -3.2213311001e+01 3.2213311001e+01 0.0000000000e+00 0.0000e+00 -1.0000e+00
       25  2    1    2    0    0 +0.0000000000e+00 +0.0000000000e+00 +8.9048672901e+01 1.5347529490e+02 1.2500000000e+02 0.0000e+00 0.0000e+00
      -15  1    3    3    0    0 +1.1163234421e+01 -7.7319495159e+00 +6.3931553491e+01 6.5381970809e+01 1.7770000000e+00 0.0000e+00 -1.0000e+00
       15  1    3    3    0    0 -7.2089051572e+00 +2.5459433171e+01 +5.0406540651e+01 5.6957248181e+01 1.7770000000e+00 0.0000e+00 -1.0000e+00
       22  1    3    3    0    0 -3.9543292637e+00 -1.7727483656e+01 -2.5289421239e+01 3.1136075914e+01 0.0000000000e+00 0.0000e+00 -1.0000e+00
<mgrwt>
<rscale>  2 0.12500000E+03</rscale>
<asrwt>0</asrwt>
<pdfrwt beam="1">  1       21 0.17832645E-01 0.12500000E+03</pdfrwt>
<pdfrwt beam="2">  1       21 0.47372517E-02 0.12500000E+03</pdfrwt>
<totfact> 0.84046806E+06</totfact>
</mgrwt>
</event>
<event>
 6      0 +9.8758382e+01 1.25000000e+02 7.54677100e-03 1.12640300e-01
       21 -1    0    0  502  501 +0.0000000000e+00 +0.0000000000e+00 +1.7301305958e+02 1.7301305958e+02 0.0000000000e+00 0.0000e+00 -1.0000e+00
       21 -1    0    0  501  502 -0.0000000000e+00 -0.0000000000e+00 -2.2577775397e+01 2.2577775397e+01 0.0000000000e+00 0.0000e+00 -1.0000e+00
       25  2    1    2    0    0 +0.0000000000e+00 +0.0000000000e+00 +1.5043528419e+02 1.9559083498e+02 1.2500000000e+02 0.0000e+00 0.0000e+00
      -15  1    3    3    0    0 -2.2622327470e+01 +1.3043670052e+01 +2.6341743406e+01 3.7134245694e+01 1.7770000000e+00 0.0000e+00 -1.0000e+00
       15  1    3    3    0    0 +2.6344074004e+01 -1.4065921077e+01 -4.1074587097e+00 3.0197505143e+01 1.7770000000e+00 0.0000e+00 -1.0000e+00
       22  1    3    3    0    0 -3.7217465334e+00 +1.0222510243e+00 +1.2820099950e+02 1.2825908415e+02 0.0000000000e+00 0.0000e+00 -1.0000e+00
<mgrwt>
<rscale>  2 0.12500000E+03</rscale>
<asrwt>0</asrwt>
<pdfrwt beam="1">  1       21 0.25443096E-01 0.12500000E+03</pdfrwt>
<pdfrwt beam="2">  1       21 0.33202612E-02 0.12500000E+03</pdfrwt>
<totfact> 0.77467179E+06</totfact>
</mgrwt>
</event>
<event>
 6      0 +9.8758382e+01 1.25000000e+02 7.54677100e-03 1.12640300e-01
       21 -1    0    0  502  501 +0.0000000000e+00 +0.0000000000e+00 +6.6107507459e+00 6.6107507459e+00 0.0000000000e+00 0.0000e+00 -1.0000e+00
       21 -1    0    0  501  502 -0.0000000000e+00 -0.0000000000e+00 -5.9089355357e+02 5.9089355357e+02 0.0000000000e+00 0.0000e+00 -1.0000e+00
       25  2    1    2    0    0 +0.0000000000e+00 +0.0000000000e+00 -5.8428280282e+02 5.9750430432e+02 1.2500000000e+02 0.0000e+00 0.0000e+00
      -15  1    3    3    0    0 -6.7570179732e+00 +4.3055719604e+00 -5.6331884901e+02 5.6337862812e+02 1.7770000000e+00 0.0000e+00 -1.0000e+00
       15  1    3    3    0    0 -2.4465370421e+00 -8.3902938648e+00 -2.2253533801e+01 2.3974154214e+01 1.7770000000e+00 0.0000e+00 -1.0000e+00
       22  1    3    3    0    0 +9.2035550153e+00 +4.0847219044e+00 +1.2895801681e+00 1.0151521806e+01 0.0000000000e+00 0.0000e+00 -1.0000e+00
<mgrwt>
<rscale>  2 0.12500000E+03</rscale>
<asrwt>0</asrwt>
<pdfrwt beam="1">  1       21 0.97216916E-03 0.12500000E+03</pdfrwt>
<pdfrwt beam="2">  1       21 0.86896117E-01 0.12500000E+03</pdfrwt>
<totfact> 0.38684354E+06</totfact>
</mgrwt>
</event>
<event>
 6      0 +9.8758382e+01 1.25000000e+02 7.54677100e-03 1.12640300e-01
       21 -1    0    0  502  501 +0.0000000000e+00 +0.0000000000e+00 +1.4340031744e+02 1.4340031744e+02 0.0000000000e+00 0.0000e+00 1.0000e+00
       21 -1    0    0  501  502 -0.0000000000e+00 -0.0000000000e+00 -2.7240176799e+01 2.7240176799e+01 0.0000000000e+00 0.0000e+00 1.0000e+00
       25  2    1    2    0    0 +0.0000000000e+00 +0.0000000000e+00 +1.1616014064e+02 1.7064049424e+02 1.2500000000e+02 0.0000e+00 0.0000e+00
      -15  1    3    3    0    0 -1.5314735700e+01 -7.9730717568e-01 +1.0517312710e+02 1.0630014685e+02 1.7770000000e+00 0.0000e+00 -1.0000e+00
       15  1    3    3    0    0 -1.8832926899e+01 +1.0217144103e+01 -9.4054555329e+00 2.3466774213e+01 1.7770000000e+00 0.0000e+00 -1.0000e+00
       22  1    3    3    0    0 +3.4147662599e+01 -9.4198369269e+00 +2.0392469068e+01 4.0873573166e+01 0.0000000000e+00 0.0000e+00 -1.0000e+00
<mgrwt>
<rscale>  2 0.12500000E+03</rscale>
<asrwt>0</asrwt>
<pdfrwt beam="1">  1       21 0.21088282E-01 0.12500000E+03</pdfrwt>
<pdfrwt beam="2">  1       21 0.40059084E-02 0.12500000E+03</pdfrwt>
<totfact> 0.81262662E+06</totfact>
</mgrwt>
</event>
<event>
 6      0 +9.8758382e+01 1.25000000e+02 7.54677100e-03 1.12640300e-01
       21 -1    0    0  502  501 +0.0000000000e+00 +0.0000000000e+00 +8.2851496584e+00 8.2851496584e+00 0.0000000000e+00 0.0000e+00 -1.0000e+00
       21 -1    0    0  501  502 -0.0000000000e+00 -0.0000000000e+00 -4.7147609410e+02 4.7147609410e+02 0.0000000000e+00 0.0000e+00 -1.0000e+00
       25  2    1    2    0    0 +0.0000000000e+00 +0.0000000000e+00 -4.6319094445e+02 4.7976124376e+02 1.2500000000e+02 0.0000e+00 0.0000e+00
      -15  1    3    3    0    0 -2.3960363805e+01 -2.3056158230e+01 -2.4087253662e+02 2.4316336503e+02 1.7770000000e+00 0.0000e+00 -1.0000e+00
       15  1    3    3    0    0 +5.0056690218e+01 +2.0444555052e+01 -1.6290703563e+02 1.7165521272e+02 1.7770000000e+00 0.0000e+00 -1.0000e+00
       22  1    3    3    0    0 -2.6096326413e+01 +2.6116031786e+00 -5.9411372293e+01 6.4942666108e+01 0.0000000000e+00 0.0000e+00 -1.0000e+00
<mgrwt>
<rscale>  2 0.12500000E+03</rscale>
<asrwt>0</asrwt>
<pdfrwt beam="1">  1       21 0.12184042E-02 0.12500000E+03</pdfrwt>
<pdfrwt beam="2">  1       21 0.69334731E-01 0.12500000E+03</pdfrwt>
<totfact> 0.46870671E+06</totfact>
</mgrwt>
</event>
<event>
 6      0 +9.8758382e+01 1.25000000e+02 7.54677100e-03 1.12640300e-01
       21 -1    0    0  502  501 +0.0000000000e+00 +0.0000000000e+00 +1.9129798431e+01 1.9129798431e+01 0.0000000000e+00 0.0000e+00 -1.0000e+00
       21 -1    0    0  501  502 -0.0000000000e+00 -0.0000000000e+00 -2.0419713328e+02 2.0419713328e+02 0.0000000000e+00 0.0000e+00 -1.0000e+00
       25  2    1    2    0    0 +0.0000000000e+00 +0.0000000000e+00 -1.8506733485e+02 2.2332693171e+02 1.2500000000e+02 0.0000e+00 0.0000e+00
      -15  1    3    3    0    0 +2.1105955685e+01 +2.1357578628e+01 -1.0200741133e+02 1.0634978714e+02 1.7770000000e+00 0.0000e+00 -1.0000e+00
       15  1    3    3    0    0 +2.2638985731e+01 +1.3152696151e+01 -3.2170733662e+01 4.1516634309e+01 1.7770000000e+00 0.0000e+00 -1.0000e+00
       22  1    3    3    0    0 -4.3744941415e+01 -3.4510274779e+01 -5.0889189868e+01 7.5460510270e+01 0.0000000000e+00 0.0000e+00 -1.0000e+00
<mgrwt>
<rscale>  2 0.12500000E+03</rscale>
<asrwt>0</asrwt>
<pdfrwt beam="1">  1       21 0.28132058E-02 0.12500000E+03</pdfrwt>
<pdfrwt beam="2">  1       21 0.30028989E-01 0.12500000E+03</pdfrwt>
<totfact> 0.73538705E+06</totfact>
</mgrwt>
</event>
<event>
 6      0 +9.8758382e+01 1.25000000e+02 7.54677100e-03 1.12640300e-01
       21 -1    0    0  502  501 +0.0000000000e+00 +0.0000000000e+00 +2.1647730360e+01 2.1647730360e+01 0.0000000000e+00 0.0000e+00 -1.0000e+00
       21 -1    0    0  501  502 -0.0000000000e+00 -0.0000000000e+00 -1.8044616849e+02 1.8044616849e+02 0.0000000000e+00 0.0000e+00 -1.0000e+00
       25  2    1    2    0    0 +0.0000000000e+00 +0.0000000000e+00 -1.5879843813e+02 2.0209389885e+02 1.2500000000e+02 0.0000e+00 0.0000e+00
      -15  1    3    3    0    0 -1.5649728089e+01 +2.3986991722e+00 +6.5988249126e+00 1.7244418407e+01 1.7770000000e+00 0.0000e+00 -1.0000e+00
       15  1    3    3    0    0 +2.0079515946e+00 -2.1389164152e+01 -4.1959103654e+00 2.1961138530e+01 1.7770000000e+00 0.0000e+00 -1.0000e+00
       22  1    3    3    0    0 +1.3641776495e+01 +1.8990464980e+01 -1.6120135268e+02 1.6288834191e+02 0.0000000000e+00 0.0000e+00 -1.0000e+00
<mgrwt>
<rscale>  2 0.12500000E+03</rscale>
<asrwt>0</asrwt>
<pdfrwt beam="1">  1       21 0.31834899E-02 0.12500000E+03</pdfrwt>
<pdfrwt beam="2">  1       21 0.26536200E-01 0.12500000E+03</pdfrwt>
<totfact> 0.76514473E+06</totfact>
</mgrwt>
</event>
<event>
 6      0 +9.8758382e+01 1.25000000e+02 7.54677100e-03 1.12640300e-01
       21 -1    0    0  502  501 +0.0000000000e+00 +0.0000000000e+00 +2.9211240356e+01 2.9211240356e+01 0.0000000000e+00 0.0000e+00 -1.0000e+00
       21 -1    0    0  501  502 -0.0000000000e+00 -0.0000000000e+00 -1.3372420864e+02 1.3372420864e+02 0.0000000000e+00 0.0000e+00 -1.0000e+00
       25  2    1    2    0    0 +0.0000000000e+00 +0.0000000000e+00 -1.0451296828e+02 1.6293544900e+02 1.2500000000e+02 0.0000e+00 0.0000e+00
      -15  1    3    3    0    0 +5.4328996451e+00 +1.1159915488e+01 +9.9366001936e+00 1.5998558207e+01 1.7770000000e+00 0.0000e+00 -1.0000e+00
       15  1    3    3    0    0 +3.4512003837e+01 +3.2103931655e+00 -1.3171526961e+01 3.7121851848e+01 1.7770000000e+00 0.0000e+00 -1.0000e+00
       22  1    3    3    0    0 -3.9944903482e+01 -1.4370308653e+01 -1.0127804151e+02 1.0981503894e+02 0.0000000000e+00 0.0000e+00 -1.0000e+00
<mgrwt>
<rscale>  2 0.12500000E+03</rscale>
<asrwt>0</asrwt>
<pdfrwt beam="1">  1       21 0.42957707E-02 0.12500000E+03</pdfrwt>
<pdfrwt beam="2">  1       21 0.19665324E-01 0.12500000E+03</pdfrwt>
<totfact> 0.82501291E+06</totfact>
</mgrwt>
</event>
<event>
 6      0 +9.8758382e+01 1.25000000e+02 7.54677100e-03 1.12640300e-01
       21 -1    0    0  502  501 +0.0000000000e+00 +0.0000000000e+00 +7.0145153090e+01 7.0145153090e+01 0.0000000000e+00 0.0000e+00 -1.0000e+00
       21 -1    0    0  501  502 -0.0000000000e+00 -0.0000000000e+00 -5.5688095726e+01 5.5688095726e+01 0.0000000000e+00 0.0000e+00 -1.0000e+00
       25  2    1    2    0    0 +0.0000000000e+00 +0.0000000000e+00 +1.4457057364e+01 1.2583324882e+02 1.2500000000e+02 0.0000e+00 0.0000e+00
      -15  1    3    3    0    0 +2.8563434182e+01 +1.1022638717e+01 +5.2634077301e+01 6.0916928344e+01 1.7770000000e+00 0.0000e+00 -1.0000e+00
       15  1    3    3    0    0 -2.3066911115e+00 +9.3877535583e+00 +4.5011759700e+00 1.0810599191e+01 1.7770000000e+00 0.0000e+00 -1.0000e+00
       22  1    3    3    0    0 -2.6256743070e+01 -2.0410392275e+01 -4.2678195907e+01 5.4105721281e+01 0.0000000000e+00 0.0000e+00 -1.0000e+00
<mgrwt>
<rscale>  2 0.12500000E+03</rscale>
<asrwt>0</asrwt>
<pdfrwt beam="1">  1       21 0.10315464E-01 0.12500000E+03</pdfrwt>
<pdfrwt beam="2">  1       21 0.81894258E-02 0.12500000E+03</pdfrwt>
<totfact> 0.88842033E+06</totfact>
</mgrwt>
</event>
<event>
 6      0 +9.8758382e+01 1.25000000e+02 7.54677100e-03 1.12640300e-01
       21 -1    0    0  502  501 +0.0000000000e+00 +0.0000000000e+00 +1.2672851471e+02 1.2672851471e+02 0.0000000000e+00 0.0000e+00 1.0000e+00
       21 -1    0    0  501  502 -0.0000000000e+00 -0.0000000000e+00 -3.0823765346e+01 3.0823765346e+01 0.0000000000e+00 0.0000e+00 1.0000e+00
       25  2    1    2    0    0 +0.0000000000e+00 +0.0000000000e+00 +9.5904749360e+01 1.5755228005e+02 1.2500000000e+02 0.0000e+00 0.0000e+00
      -15  1    3    3    0    0 -2.9681151985e+00 +3.1651959202e+01 +6.7468705404e+01 7.4604558621e+01 1.7770000000e+00 0.0000e+00 -1.0000e+00
       15  1    3    3    0    0 +2.4102175454e+01 +1.3013822475e+01 +1.6803178846e+01 3.2183520400e+01 1.7770000000e+00 0.0000e+00 -1.0000e+00
       22  1    3    3    0    0 -2.1134060255e+01 -4.4665781677e+01 +1.1632865111e+01 5.0764201032e+01 0.0000000000e+00 0.0000e+00 -1.0000e+00
<mgrwt>
<rscale>  2 0.12500000E+03</rscale>
<asrwt>0</asrwt>
<pdfrwt beam="1">  1       21 0.18636546E-01 0.12500000E+03</pdfrwt>
<pdfrwt beam="2">  1       21 0.45329067E-02 0.12500000E+03</pdfrwt>
<totfact> 0.83377594E+06</totfact>
</mgrwt>
</event>
<event>
 6      0 +9.8758382e+01 1.25000000e+02 7.54677100e-03 1.12640300e-01
       21 -1    0    0  502  501 +0.0000000000e+00 +0.0000000000e+00 +9.8426903631e+00 9.8426903631e+00 0.0000000000e+00 0.0000e+00 1.0000e+00
       21 -1    0    0  501  502 -0.0000000000e+00 -0.0000000000e+00 -3.9686811795e+02 3.9686811795e+02 0.0000000000e+00 0.0000e+00 1.0000e+00
       25  2    1    2    0    0 +0.0000000000e+00 +0.0000000000e+00 -3.8702542759e+02 4.0671080832e+02 1.2500000000e+02 0.0000e+00 0.0000e+00
      -15  1    3    3    0    0 +3.0079052027e+01 +5.5107004678e+00 -3.2028557351e+01 4.4318206252e+01 1.7770000000e+00 0.0000e+00 -1.0000e+00
       15  1    3    3    0    0 -4.1480960739e+00 +9.5884465234e+00 -6.1398644730e+00 1.2247476170e+01 1.7770000000e+00 0.0000e+00 -1.0000e+00
       22  1    3    3    0    0 -2.5930955953e+01 -1.5099146991e+01 -3.4885700573e+02 3.5014512586e+02 0.0000000000e+00 0.0000e+00 -1.0000e+00
<mgrwt>
<rscale>  2 0.12500000E+03</rscale>
<asrwt>0</asrwt>
<pdfrwt beam="1">  1       21 0.14474543E-02 0.12500000E+03</pdfrwt>
<pdfrwt beam="2">  1       21 0.58362966E-01 0.12500000E+03</pdfrwt>
<totfact> 0.53040540E+06</totfact>
</mgrwt>
</event>
<event>
 6      0 +9.8758382e+01 1.25000000e+02 7.54677100e-03 1.12640300e-01
       21 -1    0    0  502  501 +0.0000000000e+00 +0.0000000000e+00 +1.0349206010e+01 1.0349206010e+01 0.0000000000e+00 0.0000e+00 1.0000e+00
       21 -1    0    0  501  502 -0.0000000000e+00 -0.0000000000e+00 -3.7744441421e+02 3.7744441421e+02 0.0000000000e+00 0.0000e+00 1.0000e+00
       25  2    1    2    0    0 +0.0000000000e+00 +0.0000000000e+00 -3.6709520820e+02 3.8779362022e+02 1.2500000000e+02 0.0000e+00 0.0000e+00
      -15  1    3    3    0    0 +2.4560500820e+01 -1.7964566660e+01 -3.9745528289e+01 5.0088008583e+01 1.7770000000e+00 0.0000e+00 -1.0000e+00
       15  1    3    3    0    0 -1.6639694400e+01 -2.9203061013e+01 -1.0470811247e+02 1.0998474780e+02 1.7770000000e+00 0.0000e+00 -1.0000e+00
       22  1    3    3    0    0 -7.9208064197e+00 +4.7167627674e+01 -2.2264156744e+02 2.2772086384e+02 0.0000000000e+00 0.0000e+00 -1.0000e+00
<mgrwt>
<rscale>  2 0.12500000E+03</rscale>
<asrwt>0</asrwt>
<pdfrwt beam="1">  1       21 0.15219422E-02 0.12500000E+03</pdfrwt>
<pdfrwt beam="2">  1       21 0.55506526E-01 0.12500000E+03</pdfrwt>
<totfact> 0.54798680E+06</totfact>
</mgrwt>
</event>
<event>
 6      0 +9.8758382e+01 1.25000000e+02 7.54677100e-03 1.12640300e-01
       21 -1    0    0  502  501 +0.0000000000e+00 +0.0000000000e+00 +1.9088002628e+01 1.9088002628e+01 0.0000000000e+00 0.0000e+00 -1.0000e+00
       21 -1    0    0  501  502 -0.0000000000e+00 -0.0000000000e+00 -2.0464425095e+02 2.0464425095e+02 0.0000000000e+00 0.0000e+00 -1.0000e+00
       25  2    1    2    0    0 +0.0000000000e+00 +0.0000000000e+00 -1.8555624833e+02 2.2373225358e+02 1.2500000000e+02 0.0000e+00 0.0000e+00
      -15  1    3    3    0    0 +2.8864983696e+01 -1.2371890926e+01 -5.3466130200e+01 6.2032538045e+01 1.7770000000e+00 0.0000e+00 -1.0000e+00
       15  1    3    3    0    0 +2.7582280746e+01 +9.9258630956e+00 -1.8159411168e+01 3.4528639017e+01 1.7770000000e+00 0.0000e+00 -1.0000e+00
       22  1    3    3    0    0 -5.6447264441e+01 +2.4460278307e+00 -1.1393070698e+02 1.2717107653e+02 0.0000000000e+00 0.0000e+00 -1.0000e+00
<mgrwt>
<rscale>  2 0.12500000E+03</rscale>
<asrwt>0</asrwt>
<pdfrwt beam="1">  1       21 0.28070591E-02 0.12500000E+03</pdfrwt>
<pdfrwt beam="2">  1       21 0.30094744E-01 0.12500000E+03</pdfrwt>
<totfact> 0.73483586E+06</totfact>
</mgrwt>
</event>
<event>
 6      0 +9.8758382e+01 1.25000000e+02 7.54677100e-03 1.12640300e-01
       21 -1    0    0  502  501 +0.0000000000e+00 +0.0000000000e+00 +3.2851076070e+01 3.2851076070e+01 0.0000000000e+00 0.0000e+00 1.0000e+00
       21 -1    0    0  501  502 -0.0000000000e+00 -0.0000000000e+00 -1.1890782487e+02 1.1890782487e+02 0.0000000000e+00 0.0000e+00 1.0000e+00
       25  2    1    2    0    0 +0.0000000000e+00 +0.0000000000e+00 -8.6056748795e+01 1.5175890094e+02 1.2500000000e+02 0.0000e+00 0.0000e+00
      -15  1    3    3    0    0 -2.0953201150e+00 -3.0251575170e+01 +1.2700584978e+01 3.2924318587e+01 1.7770000000e+00 0.0000e+00 -1.0000e+00
       15  1    3    3    0    0 +2.6977417543e+01 +3.0158636253e+01 -6.9366151721e+01 8.0325245917e+01 1.7770000000e+00 0.0000e+00 -1.0000e+00
       22  1    3    3    0    0 -2.4882097428e+01 +9.2938916995e-02 -2.9391182048e+01 3.8509336429e+01 0.0000000000e+00 0.0000e+00 -1.0000e+00
<mgrwt>
<rscale>  2 0.12500000E+03</rscale>
<asrwt>0</asrwt>
<pdfrwt beam="1">  1       21 0.48310408E-02 0.12500000E+03</pdfrwt>
<pdfrwt beam="2">  1       21 0.17486444E-01 0.12500000E+03</pdfrwt>
<totfact> 0.84331544E+06</totfact>
</mgrwt>
</event>
<event>
 6      0 +9.8758382e+01 1.25000000e+02 7.54677100e-03 1.12640300e-01
       21 -1    0    0  502  501 +0.0000000000e+00 +0.0000000000e+00 +2.6773923086e+01 2.6773923086e+01 0.0000000000e+00 0.0000e+00 1.0000e+00
       21 -1    0    0  501  502 -0.0000000000e+00 -0.0000000000e+00 -1.4589755814e+02 1.4589755814e+02 0.0000000000e+00 0.0000e+00 1.0000e+00
       25  2    1    2    0    0 +0.0000000000e+00 +0.0000000000e+00 -1.1912363505e+02 1.7267148122e+02 1.2500000000e+02 0.0000e+00 0.0000e+00
      -15  1    3    3    0    0 -1.5571584711e+01 -1.8537225561e+01 +8.7716256198e+00 2.5810891634e+01 1.7770000000e+00 0.0000e+00 -1.0000e+00
       15  1    3    3    0    0 +4.0097770031e+01 +7.0377309889e+00 -5.0673453719e+01 6.5025513914e+01 1.7770000000e+00 0.0000e+00 -1.0000e+00
       22  1    3    3    0    0 -2.4526185321e+01 +1.1499494572e+01 -7.7221806954e+01 8.1835075677e+01 0.0000000000e+00 0.0000e+00 -1.0000e+00
<mgrwt>
<rscale>  2 0.12500000E+03</rscale>
<asrwt>0</asrwt>
<pdfrwt beam="1">  1       21 0.39373416E-02 0.12500000E+03</pdfrwt>
<pdfrwt beam="2">  1       21 0.21455523E-01 0.12500000E+03</pdfrwt>
<totfact> 0.80942369E+06</totfact>
</mgrwt>
</event>
<event>
 6      0 +9.8758382e+01 1.25000000e+02 7.54677100e-03 1.12640300e-01
       21 -1    0    0  502  501 +0.0000000000e+00 +0.0000000000e+00 +1.4435181425e+02 1.4435181425e+02 0.0000000000e+00 0.0000e+00 -1.0000e+00
       21 -1    0    0  501  502 -0.0000000000e+00 -0.0000000000e+00 -2.7060622828e+01 2.7060622828e+01 0.0000000000e+00 0.0000e+00 -1.0000e+00
       25  2    1    2    0    0 +0.0000000000e+00 +0.0000000000e+00 +1.1729119142e+02 1.7141243708e+02 1.2500000000e+02 0.0000e+00 0.0000e+00
      -15  1    3    3    0    0 -1.4724612397e+01 -2.4395361103e+00 -1.4975499863e+01 2.1217654721e+01 1.7770000000e+00 0.0000e+00 -1.0000e+00
       15  1    3    3    0    0 +1.5700036821e+01 +6.0221283618e+00 -9.4116213593e-01 1.6935191211e+01 1.7770000000e+00 0.0000e+00 -1.0000e+00
       22  1    3    3    0    0 -9.7542442329e-01 -3.5825922515e+00 +1.3320785342e+02 1.3325959114e+02 0.0000000000e+00 0.0000e+00 -1.0000e+00
<mgrwt>
<rscale>  2 0.12500000E+03</rscale>
<asrwt>0</asrwt>
<pdfrwt beam="1">  1       21 0.21228208E-01 0.12500000E+03</pdfrwt>
<pdfrwt beam="2">  1       21 0.39795034E-02 0.12500000E+03</pdfrwt>
<totfact> 0.81140625E+06</totfact>
</mgrwt>
</event>
<event>
 6      0 +9.8758382e+01 1.25000000e+02 7.54677100e-03 1.12640300e-01
       21 -1    0    0  502  501 +0.0000000000e+00 +0.0000000000e+00 +1.3093314091e+01 1.3093314091e+01 0.0000000000e+00 0.0000e+00 1.0000e+00
       21 -1    0    0  501  502 -0.0000000000e+00 -0.0000000000e+00 -2.9833928773e+02 2.9833928773e+02 0.0000000000e+00 0.0000e+00 1.0000e+00
       25  2    1    2    0    0 +0.0000000000e+00 +0.0000000000e+00 -2.8524597364e+02 3.1143260182e+02 1.2500000000e+02 0.0000e+00 0.0000e+00
      -15  1    3    3    0    0 +1.8419725007e+01 -5.5747129443e-01 -3.3471002553e+01 3.8250003719e+01 1.7770000000e+00 0.0000e+00 -1.0000e+00
       15  1    3    3    0    0 +1.5749958980e+01 -1.6229142729e+01 -4.6680165866e+00 2.3160189753e+01 1.7770000000e+00 0.0000e+00 -1.0000e+00
       22  1    3    3    0    0 -3.4169683987e+01 +1.6786614023e+01 -2.4710695451e+02 2.5002240836e+02 0.0000000000e+00 0.0000e+00 -1.0000e+00
<mgrwt>
<rscale>  2 0.12500000E+03</rscale>
<asrwt>0</asrwt>
<pdfrwt beam="1">  1       21 0.19254873E-02 0.12500000E+03</pdfrwt>
<pdfrwt beam="2">  1       21 0.43873427E-01 0.12500000E+03</pdfrwt>
<totfact> 0.62654365E+06</totfact>
</mgrwt>
</event>
<event>
 6      0 +9.8758382e+01 1.25000000e+02 7.54677100e-03 1.12640300e-01
       21 -1    0    0  502  501 +0.0000000000e+00 +0.0000000000e+00 +2.2194032615e+02 2.2194032615e+02 0.0000000000e+00 0.0000e+00 1.0000e+00
       21 -1    0    0  501  502 -0.0000000000e+00 -0.0000000000e+00 -1.7600451742e+01 1.7600451742e+01 0.0000000000e+00 0.0000e+00 1.0000e+00
       25  2    1    2    0    0 +0.0000000000e+00 +0.0000000000e+00 +2.0433987441e+02 2.3954077789e+02 1.2500000000e+02 0.0000e+00 0.0000e+00
      -15  1    3    3    0    0 +6.1430094750e+00 +8.9723630969e+00 -5.8357815930e+00 1.2468116967e+01 1.7770000000e+00 0.0000e+00 -1.0000e+00
       15  1    3    3    0    0 +2.4517092404e+00 -4.2292773764e+01 +6.3083638004e+01 7.6009161972e+01 1.7770000000e+00 0.0000e+00 -1.0000e+00
       22  1    3    3    0    0 -8.5947187154e+00 +3.3320410667e+01 +1.4709201801e+02 1.5106349896e+02 0.0000000000e+00 0.0000e+00 -1.0000e+00
<mgrwt>
<rscale>  2 0.12500000E+03</rscale>
<asrwt>0</asrwt>
<pdfrwt beam="1">  1       21 0.32638282E-01 0.12500000E+03</pdfrwt>
<pdfrwt beam="2">  1       21 0.25883019E-02 0.12500000E+03</pdfrwt>
<totfact> 0.71367237E+06</totfact>
</mgrwt>
</event>
<event>
 6      0 +9.8758382e+01 1.25000000e+02 7.54677100e-03 1.12640300e-01
       21 -1    0    0  502  501 +0.0000000000e+00 +0.0000000000e+00 +2.7512460324e+01 2.7512460324e+01 0.0000000000e+00 0.0000e+00 1.0000e+00
       21 -1    0    0  501  502 -0.0000000000e+00 -0.0000000000e+00 -1.4198112251e+02 1.4198112251e+02 0.0000000000e+00 0.0000e+00 1.0000e+00
       25  2    1    2    0    0 +0.0000000000e+00 +0.0000000000e+00 -1.1446866219e+02 1.6949358284e+02 1.2500000000e+02 0.0000e+00 0.0000e+00
      -15  1    3    3    0    0 +2.5566478220e+01 -5.3303459171e+00 -2.2250537497e+01 3.4355516938e+01 1.7770000000e+00 0.0000e+00 -1.0000e+00
       15  1    3    3    0    0 +1.2944129584e+01 -9.1160323638e+00 +1.4016088530e+01 2.1219354454e+01 1.7770000000e+00 0.0000e+00 -1.0000e+00
       22  1    3    3    0    0 -3.8510607803e+01 +1.4446378281e+01 -1.0623421322e+02 1.1391871145e+02 0.0000000000e+00 0.0000e+00 -1.0000e+00
<mgrwt>
<rscale>  2 0.12500000E+03</rscale>
<asrwt>0</asrwt>
<pdfrwt beam="1">  1       21 0.40459500E-02 0.12500000E+03</pdfrwt>
<pdfrwt beam="2">  1       21 0.20879577E-01 0.12500000E+03</pdfrwt>
<totfact> 0.81444675E+06</totfact>
</mgrwt>
</event>
<event>
 6      0 +9.8758382e+01 1.25000000e+02 7.54677100e-03 1.12640300e-01
       21 -1    0    0  502  501 +0.0000000000e+00 +0.0000000000e+00 +1.8445381762e+03 1.8445381762e+03 0.0000000000e+00 0.0000e+00 -1.0000e+00
       21 -1    0    0  501  502 -0.0000000000e+00 -0.0000000000e+00 -2.1177387654e+00 2.1177387654e+00 0.0000000000e+00 0.0000e+00 -1.0000e+00
       25  2    1    2    0    0 +0.0000000000e+00 +0.0000000000e+00 +1.8424204374e+03 1.8466559150e+03 1.2500000000e+02 0.0000e+00 0.0000e+00
      -15  1    3    3    0    0 +5.5189028641e+00 -6.3030149447e+00 +5.2102039727e+02 5.2109077749e+02 1.7770000000e+00 0.0000e+00 -1.0000e+00
       15  1    3    3    0    0 +4.4306562490e+01 -5.1346374611e+00 +3.5215446143e+02 3.5497233472e+02 1.7770000000e+00 0.0000e+00 -1.0000e+00
       22  1    3    3    0    0 -4.9825465354e+01 +1.1437652406e+01 +9.6924556364e+02 9.7059278770e+02 0.0000000000e+00 0.0000e+00 -1.0000e+00
<mgrwt>
<rscale>  2 0.12500000E+03</rscale>
<asrwt>0</asrwt>
<pdfrwt beam="1">  1       21 0.27125449E+00 0.12500000E+03</pdfrwt>
<pdfrwt beam="2">  1       21 0.31143346E-03 0.12500000E+03</pdfrwt>
<totfact> 0.66215050E+05</totfact>
</mgrwt>
</event>
<event>
 6      0 +9.8758382e+01 1.25000000e+02 7.54677100e-03 1.12640300e-01
       21 -1    0    0  502  501 +0.0000000000e+00 +0.0000000000e+00 +1.6648263592e+02 1.6648263592e+02 0.0000000000e+00 0.0000e+00 -1.0000e+00
       21 -1    0    0  501  502 -0.0000000000e+00 -0.0000000000e+00 -2.3463407931e+01 2.3463407931e+01 0.0000000000e+00 0.0000e+00 -1.0000e+00
       25  2    1    2    0    0 +0.0000000000e+00 +0.0000000000e+00 +1.4301922799e+02 1.8994604385e+02 1.2500000000e+02 0.0000e+00 0.0000e+00
      -15  1    3    3    0    0 +2.8405317062e+00 -4.8452464695e+01 +4.4911104917e+01 6.6150397046e+01 1.7770000000e+00 0.0000e+00 -1.0000e+00
       15  1    3    3    0    0 +2.0746047556e+01 +7.8399096398e-01 +3.9460275191e+01 4.4623807303e+01 1.7770000000e+00 0.0000e+00 -1.0000e+00
       22  1    3    3    0    0 -2.3586579262e+01 +4.7668473731e+01 +5.8647847884e+01 7.9171839505e+01 0.0000000000e+00 0.0000e+00 -1.0000e+00
<mgrwt>
<rscale>  2 0.12500000E+03</rscale>
<asrwt>0</asrwt>
<pdfrwt beam="1">  1       21 0.24482740E-01 0.12500000E+03</pdfrwt>
<pdfrwt beam="2">  1       21 0.34505012E-02 0.12500000E+03</pdfrwt>
<totfact> 0.78305658E+06</totfact>
</mgrwt>
</event>
<event>
 6      0 +9.8758382e+01 1.25000000e+02 7.54677100e-03 1.12640300e-01
       21 -1    0    0  502  501 +0.0000000000e+00 +0.0000000000e+00 +5.1434593014e+01 5.1434593014e+01 0.0000000000e+00 0.0000e+00 1.0000e+00
       21 -1    0    0  501  502 -0.0000000000e+00 -0.0000000000e+00 -7.5945968873e+01 7.5945968873e+01 0.0000000000e+00 0.0000e+00 1.0000e+00
       25  2    1    2    0    0 +0.0000000000e+00 +0.0000000000e+00 -2.4511375859e+01 1.2738056189e+02 1.2500000000e+02 0.0000e+00 0.0000e+00
      -15  1    3    3    0    0 +2.1979206524e+01 -2.3562921235e+01 +1.6367121089e+00 3.2313052039e+01 1.7770000000e+00 0.0000e+00 -1.0000e+00
       15  1    3    3    0    0 -1.6310441005e+01 -9.2371236024e+00 +2.6663447878e+01 3.2641264068e+01 1.7770000000e+00 0.0000e+00 -1.0000e+00
       22  1    3    3    0    0 -5.6687655187e+00 +3.2800044837e+01 -5.2811535846e+01 6.2426245780e+01 0.0000000000e+00 0.0000e+00 -1.0000e+00
<mgrwt>
<rscale>  2 0.12500000E+03</rscale>
<asrwt>0</asrwt>
<pdfrwt beam="1">  1       21 0.75639108E-02 0.12500000E+03</pdfrwt>
<pdfrwt beam="2">  1       21 0.11168525E-01 0.12500000E+03</pdfrwt>
<totfact> 0.88566432E+06</totfact>
</mgrwt>
</event>
<event>
 6      0 +9.8758382e+01 1.25000000e+02 7.54677100e-03 1.12640300e-01
       21 -1    0    0  502  501 +0.0000000000e+00 +0.0000000000e+00 +3.5092580688e+01 3.5092580688e+01 0.0000000000e+00 0.0000e+00 -1.0000e+00
       21 -1    0    0  501  502 -0.0000000000e+00 -0.0000000000e+00 -1.1131270267e+02 1.1131270267e+02 0.0000000000e+00 0.0000e+00 -1.0000e+00
       25  2    1    2    0    0 +0.0000000000e+00 +0.0000000000e+00 -7.6220121981e+01 1.4640528336e+02 1.2500000000e+02 0.0000e+00 0.0000e+00
      -15  1    3    3    0    0 -3.5649030525e+01 +1.5076299330e+01 -7.7193885532e+01 8.6372460144e+01 1.7770000000e+00 0.0000e+00 -1.0000e+00
       15  1    3    3    0    0 +4.1450896750e+00 -2.0840836006e+01 +1.3945549115e+01 2.5478584791e+01 1.7770000000e+00 0.0000e+00 -1.0000e+00
       22  1    3    3    0    0 +3.1503940850e+01 +5.7645366759e+00 -1.2971785561e+01 3.4554238420e+01 0.0000000000e+00 0.0000e+00 -1.0000e+00
<mgrwt>
<rscale>  2 0.12500000E+03</rscale>
<asrwt>0</asrwt>
<pdfrwt beam="1">  1       21 0.51606737E-02 0.12500000E+03</pdfrwt>
<pdfrwt beam="2">  1       21 0.16369515E-01 0.12500000E+03</pdfrwt>
<totfact> 0.85233505E+06</totfact>
</mgrwt>
</event>
<event>
 6      0 +9.8758382e+01 1.25000000e+02 7.54677100e-03 1.12640300e-01
       21 -1    0    0  502  501 +0.0000000000e+00 +0.0000000000e+00 +1.2193411874e+01 1.2193411874e+01 0.0000000000e+00 0.0000e+00 1.0000e+00
       21 -1    0    0  501  502 -0.0000000000e+00 -0.0000000000e+00 -3.2035742256e+02 3.2035742256e+02 0.0000000000e+00 0.0000e+00 1.0000e+00
       25  2    1    2    0    0 +0.0000000000e+00 +0.0000000000e+00 -3.0816401069e+02 3.3255083443e+02 1.2500000000e+02 0.0000e+00 0.0000e+00
      -15  1    3    3    0    0 +3.9971053287e+01 -1.3725004818e+01 -5.8580131466e+01 7.2255452318e+01 1.7770000000e+00 0.0000e+00 -1.0000e+00
       15  1    3    3    0    0 -4.3335412996e+01 -1.1024783391e+01 -1.9784350485e+02 2.0284159832e+02 1.7770000000e+00 0.0000e+00 -1.0000e+00
       22  1    3    3    0    0 +3.3643597092e+00 +2.4749788209e+01 -5.1740374422e+01 5.7453783843e+01 0.0000000000e+00 0.0000e+00 -1.0000e+00
<mgrwt>
<rscale>  2 0.12500000E+03</rscale>
<asrwt>0</asrwt>
<pdfrwt beam="1">  1       21 0.17931489E-02 0.12500000E+03</pdfrwt>
<pdfrwt beam="2">  1       21 0.47111382E-01 0.12500000E+03</pdfrwt>
<totfact> 0.60350943E+06</totfact>
</mgrwt>
</event>
<event>
 6      0 +9.8758382e+01 1.25000000e+02 7.54677100e-03 1.12640300e-01
       21 -1    0    0  502  501 +0.0000000000e+00 +0.0000000000e+00 +4.3907868348e+01 4.3907868348e+01 0.0000000000e+00 0.0000e+00 1.0000e+00
       21 -1    0    0  501  502 -0.0000000000e+00 -0.0000000000e+00 -8.8964692365e+01 8.8964692365e+01 0.0000000000e+00 0.0000e+00 1.0000e+00
       25  2    1    2    0    0 +0.0000000000e+00 +0.0000000000e+00 -4.5056824017e+01 1.3287256071e+02 1.2500000000e+02 0.0000e+00 0.0000e+00
      -15  1    3    3    0    0 -2.8000946266e+01 +3.9997536705e+01 +2.5120297532e+00 4.8921610325e+01 1.7770000000e+00 0.0000e+00 -1.0000e+00
       15  1    3    3    0    0 +2.8061109235e+01 +2.1857913601e-01 -2.6092948896e+01 3.8359788052e+01 1.7770000000e+00 0.0000e+00 -1.0000e+00
       22  1    3    3    0    0 -6.0162968228e-02 -4.0216115841e+01 -2.1475904875e+01 4.5591162336e+01 0.0000000000e+00 0.0000e+00 -1.0000e+00
<mgrwt>
<rscale>  2 0.12500000E+03</rscale>
<asrwt>0</asrwt>
<pdfrwt beam="1">  1       21 0.64570395E-02 0.12500000E+03</pdfrwt>
<pdfrwt beam="2">  1       21 0.13083043E-01 0.12500000E+03</pdfrwt>
<totfact> 0.87580681E+06</totfact>
</mgrwt>
</event>
<event>
 6      0 +9.8758382e+01 1.25000000e+02 7.54677100e-03 1.12640300e-01
       21 -1    0    0  502  501 +0.0000000000e+00 +0.0000000000e+00 +1.0661623278e+03 1.0661623278e+03 0.0000000000e+00 0.0000e+00 1.0000e+00
       21 -1    0    0  501  502 -0.0000000000e+00 -0.0000000000e+00 -3.6638417043e+00 3.6638417043e+00 0.0000000000e+00 0.0000e+00 1.0000e+00
       25  2    1    2    0    0 +0.0000000000e+00 +0.0000000000e+00 +1.0624984861e+03 1.0698261695e+03 1.2500000000e+02 0.0000e+00 0.0000e+00
      -15  1    3    3    0    0 +2.0448664879e+01 -9.7583757452e+00 +3.0807581668e+02 3.0891299802e+02 1.7770000000e+00 0.0000e+00 -1.0000e+00
       15  1    3    3    0    0 -1.7727157070e+00 -7.9086205965e+00 +2.6632799695e+00 8.7143324390e+00 1.7770000000e+00 0.0000e+00 -1.0000e+00
       22  1    3    3    0    0 -1.8675949172e+01 +1.7666996342e+01 +7.5175939006e+02 7.5219883965e+02 0.0000000000e+00 0.0000e+00 -1.0000e+00
<mgrwt>
<rscale>  2 0.12500000E+03</rscale>
<asrwt>0</asrwt>
<pdfrwt beam="1">  1       21 0.15678836E+00 0.12500000E+03</pdfrwt>
<pdfrwt beam="2">  1       21 0.53880099E-03 0.12500000E+03</pdfrwt>
<totfact> 0.19199394E+06</totfact>
</mgrwt>
</event>
<event>
 6      0 +9.8758382e+01 1.25000000e+02 7.54677100e-03 1.12640300e-01
       21 -1    0    0  502  501 +0.0000000000e+00 +0.0000000000e+00 +1.7013682065e+02 1.7013682065e+02 0.0000000000e+00 0.0000e+00 1.0000e+00
       21 -1    0    0  501  502 -0.0000000000e+00 -0.0000000000e+00 -2.2959462773e+01 2.2959462773e+01 0.0000000000e+00 0.0000e+00 1.0000e+00
       25  2    1    2    0    0 +0.0000000000e+00 +0.0000000000e+00 +1.4717735788e+02 1.9309628342e+02 1.2500000000e+02 0.0000e+00 0.0000e+00
      -15  1    3    3    0    0 +2.6057193572e+01 +4.7477397073e+00 +5.2865769529e+01 5.9156281882e+01 1.7770000000e+00 0.0000e+00 -1.0000e+00
       15  1    3    3    0    0 -5.1083464356e+00 +4.1271555244e+01 +5.9251310988e+01 7.2410717842e+01 1.7770000000e+00 0.0000e+00 -1.0000e+00
       22  1    3    3    0    0 -2.0948847137e+01 -4.6019294952e+01 +3.5060277373e+01 6.1529283708e+01 0.0000000000e+00 0.0000e+00 -1.0000e+00
<mgrwt>
<rscale>  2 0.12500000E+03</rscale>
<asrwt>0</asrwt>
<pdfrwt beam="1">  1       21 0.25020120E-01 0.12500000E+03</pdfrwt>
<pdfrwt beam="2">  1       21 0.33763917E-02 0.12500000E+03</pdfrwt>
<totfact> 0.77836774E+06</totfact>
</mgrwt>
</event>
<event>
 6      0 +9.8758382e+01 1.25000000e+02 7.54677100e-03 1.12640300e-01
       21 -1    0    0  502  501 +0.0000000000e+00 +0.0000000000e+00 +5.0062369656e+00 5.0062369656e+00 0.0000000000e+00 0.0000e+00 1.0000e+00
       21 -1    0    0  501  502 -0.0000000000e+00 -0.0000000000e+00 -7.8027668823e+02 7.8027668823e+02 0.0000000000e+00 0.0000e+00 1.0000e+00
       25  2    1    2    0    0 +0.0000000000e+00 +0.0000000000e+00 -7.7527045126e+02 7.8528292520e+02 1.2500000000e+02 0.0000e+00 0.0000e+00
      -15  1    3    3    0    0 -1.0767927322e+01 +4.7567561118e+01 -3.1542005929e+02 3.1917329566e+02 1.7770000000e+00 0.0000e+00 -1.0000e+00
       15  1    3    3    0    0 +1.6149772039e+01 -5.3103987378e+01 -2.4898792192e+02 2.5510584392e+02 1.7770000000e+00 0.0000e+00 -1.0000e+00
       22  1    3    3    0    0 -5.3818447171e+00 +5.5364262602e+00 -2.1086246971e+02 2.1100378528e+02 0.0000000000e+00 0.0000e+00 -1.0000e+00
<mgrwt>
<rscale>  2 0.12500000E+03</rscale>
<asrwt>0</asrwt>
<pdfrwt beam="1">  1       21 0.73621114E-03 0.12500000E+03</pdfrwt>
<pdfrwt beam="2">  1       21 0.11474660E+00 0.12500000E+03</pdfrwt>
<totfact> 0.28912025E+06</totfact>
</mgrwt>
</event>
<event>
 6      0 +9.8758382e+01 1.25000000e+02 7.54677100e-03 1.12640300e-01
       21 -1    0    0  502  501 +0.0000000000e+00 +0.0000000000e+00 +4.7967520496e+00 4.7967520496e+00 0.0000000000e+00 0.0000e+00 1.0000e+00
       21 -1    0    0  501  502 -0.0000000000e+00 -0.0000000000e+00 -8.1435312053e+02 8.1435312053e+02 0.0000000000e+00 0.0000e+00 1.0000e+00
       25  2    1    2    0    0 +0.0000000000e+00 +0.0000000000e+00 -8.0955636848e+02 8.1914987258e+02 1.2500000000e+02 0.0000e+00 0.0000e+00
      -15  1    3    3    0    0 -1.1446849680e+01 -2.0599072226e+00 -4.2281644987e+02 4.2298011962e+02 1.7770000000e+00 0.0000e+00 -1.0000e+00
       15  1    3    3    0    0 -3.5821478038e+01 -6.7624581245e+00 -2.0223616483e+02 2.0550312217e+02 1.7770000000e+00 0.0000e+00 -1.0000e+00
       22  1    3    3    0    0 +4.7268327718e+01 +8.8223653472e+00 -1.8450375374e+02 1.9066663075e+02 0.0000000000e+00 0.0000e+00 -1.0000e+00
<mgrwt>
<rscale>  2 0.12500000E+03</rscale>
<asrwt>0</asrwt>
<pdfrwt beam="1">  1       21 0.70540550E-03 0.12500000E+03</pdfrwt>
<pdfrwt beam="2">  1       21 0.11975768E+00 0.12500000E+03</pdfrwt>
<totfact> 0.27494644E+06</totfact>
</mgrwt>
</event>
<event>
 6      0 +9.8758382e+01 1.25000000e+02 7.54677100e-03 1.12640300e-01
       21 -1    0    0  502  501 +0.0000000000e+00 +0.0000000000e+00 +2.3949291778e+02 2.3949291778e+02 0.0000000000e+00 0.0000e+00 1.0000e+00
       21 -1    0    0  501  502 -0.0000000000e+00 -0.0000000000e+00 -1.6310503192e+01 1.6310503192e+01 0.0000000000e+00 0.0000e+00 1.0000e+00
       25  2    1    2    0    0 +0.0000000000e+00 +0.0000000000e+00 +2.2318241459e+02 2.5580342098e+02 1.2500000000e+02 0.0000e+00 0.0000e+00
      -15  1    3    3    0    0 -4.8657225005e+01 +2.5727887553e+01 +6.4260530378e+01 8.4628737652e+01 1.7770000000e+00 0.0000e+00 -1.0000e+00
       15  1    3    3    0    0 +3.8802521405e+01 -5.8401582211e+00 +7.8976102171e+01 8.8205020030e+01 1.7770000000e+00 0.0000e+00 -1.0000e+00
       22  1    3    3    0    0 +9.8547035994e+00 -1.9887729332e+01 +7.9945782018e+01 8.2969663272e+01 0.0000000000e+00 0.0000e+00 -1.0000e+00
<mgrwt>
<rscale>  2 0.12500000E+03</rscale>
<asrwt>0</asrwt>
<pdfrwt beam="1">  1       21 0.35219545E-01 0.12500000E+03</pdfrwt>
<pdfrwt beam="2">  1       21 0.23986036E-02 0.12500000E+03</pdfrwt>
<totfact> 0.69262920E+06</totfact>
</mgrwt>
</event>
<event>
 6      0 +9.8758382e+01 1.25000000e+02 7.54677100e-03 1.12640300e-01
       21 -1    0    0  502  501 +0.0000000000e+00 +0.0000000000e+00 +8.9336193225e+01 8.9336193225e+01 0.0000000000e+00 0.0000e+00 -1.0000e+00
       21 -1    0    0  501  502 -0.0000000000e+00 -0.0000000000e+00 -4.3725279296e+01 4.3725279296e+01 0.0000000000e+00 0.0000e+00 -1.0000e+00
       25  2    1    2    0    0 +0.0000000000e+00 +0.0000000000e+00 +4.5610913928e+01 1.3306147252e+02 1.2500000000e+02 0.0000e+00 0.0000e+00
      -15  1    3    3    0    0 +2.1132644743e+00 -7.7858427546e-02 -1.1792524813e+01 1.2111701744e+01 1.7770000000e+00 0.0000e+00 -1.0000e+00
       15  1    3    3    0    0 +4.7056175233e+01 +2.0447383109e+01 +1.6828371585e+01 5.4025280404e+01 1.7770000000e+00 0.0000e+00 -1.0000e+00
       22  1    3    3    0    0 -4.9169439707e+01 -2.0369524682e+01 +4.0575067156e+01 6.6924490373e+01 0.0000000000e+00 0.0000e+00 -1.0000e+00
<mgrwt>
<rscale>  2 0.12500000E+03</rscale>
<asrwt>0</asrwt>
<pdfrwt beam="1">  1       21 0.13137675E-01 0.12500000E+03</pdfrwt>
<pdfrwt beam="2">  1       21 0.64301881E-02 0.12500000E+03</pdfrwt>
<totfact> 0.87547161E+06</totfact>
</mgrwt>
</event>
<event>
 6      0 +9.8758382e+01 1.25000000e+02 7.54677100e-03 1.12640300e-01
       21 -1    0    0  502  501 +0.0000000000e+00 +0.0000000000e+00 +4.9377225063e+01 4.9377225063e+01 0.0000000000e+00 0.0000e+00 1.0000e+00
       21 -1    0    0  501  502 -0.0000000000e+00 -0.0000000000e+00 -7.9110358976e+01 7.9110358976e+01 0.0000000000e+00 0.0000e+00 1.0000e+00
       25  2    1    2    0    0 +0.0000000000e+00 +0.0000000000e+00 -2.9733133913e+01 1.2848758404e+02 1.2500000000e+02 0.0000e+00 0.0000e+00
      -15  1    3    3    0    0 -2.0864771638e+00 -3.0931855408e+01 +3.4905593292e+01 4.6719281223e+01 1.7770000000e+00 0.0000e+00 -1.0000e+00
       15  1    3    3    0    0 +2.3973422680e+00 -9.3403309704e+00 -1.2675823437e+01 1.6025706268e+01 1.7770000000e+00 0.0000e+00 -1.0000e+00
       22  1    3    3    0    0 -3.1086510425e-01 +4.0272186379e+01 -5.1962903768e+01 6.5742596547e+01 0.0000000000e+00 0.0000e+00 -1.0000e+00
<mgrwt>
<rscale>  2 0.12500000E+03</rscale>
<asrwt>0</asrwt>
<pdfrwt beam="1">  1       21 0.72613567E-02 0.12500000E+03</pdfrwt>
<pdfrwt beam="2">  1       21 0.11633876E-01 0.12500000E+03</pdfrwt>
<totfact> 0.88371172E+06</totfact>
</mgrwt>
</event>
<event>
 6      0 +9.8758382e+01 1.25000000e+02 7.54677100e-03 1.12640300e-01
       21 -1    0    0  502  501 +0.0000000000e+00 +0.0000000000e+00 +1.7085655557e+02 1.7085655557e+02 0.0000000000e+00 0.0000e+00 1.0000e+00
       21 -1    0    0  501  502 -0.0000000000e+00 -0.0000000000e+00 -2.2862745811e+01 2.2862745811e+01 0.0000000000e+00 0.0000e+00 1.0000e+00
       25  2    1    2    0    0 +0.0000000000e+00 +0.0000000000e+00 +1.4799380976e+02 1.9371930138e+02 1.2500000000e+02 0.0000e+00 0.0000e+00
      -15  1    3    3    0    0 -4.8052967465e+00 +3.3700998652e+01 -2.2185942089e-01 3.4088929839e+01 1.7770000000e+00 0.0000e+00 -1.0000e+00
       15  1    3    3    0    0 -1.6351998538e+01 +9.2005520437e-01 +6.4929186188e+01 6.6986500922e+01 1.7770000000e+00 0.0000e+00 -1.0000e+00
       22  1    3    3    0    0 +2.1157295285e+01 -3.4621053857e+01 +8.3286482995e+01 9.2643870621e+01 0.0000000000e+00 0.0000e+00 -1.0000e+00
<mgrwt>
<rscale>  2 0.12500000E+03</rscale>
<asrwt>0</asrwt>
<pdfrwt beam="1">  1       21 0.25125963E-01 0.12500000E+03</pdfrwt>
<pdfrwt beam="2">  1       21 0.33621686E-02 0.12500000E+03</pdfrwt>
<totfact> 0.77744331E+06</totfact>
</mgrwt>
</event>
<event>
 6      0 +9.8758382e+01 1.25000000e+02 7.54677100e-03 1.12640300e-01
       21 -1    0    0  502  501 +0.0000000000e+00 +0.0000000000e+00 +2.0742195313e+01 2.0742195313e+01 0.0000000000e+00 0.0000e+00 1.0000e+00
       21 -1    0    0  501  502 -0.0000000000e+00 -0.0000000000e+00 -1.8832384620e+02 1.8832384620e+02 0.0000000000e+00 0.0000e+00 1.0000e+00
       25  2    1    2    0    0 +0.0000000000e+00 +0.0000000000e+00 -1.6758165089e+02 2.0906604152e+02 1.2500000000e+02 0.0000e+00 0.0000e+00
      -15  1    3    3    0    0 +2.6012295974e+01 -2.3101675902e+00 -1.1523483362e+01 2.8599384853e+01 1.7770000000e+00 0.0000e+00 -1.0000e+00
       15  1    3    3    0    0 +2.1504779325e+01 -2.6812541920e+01 -6.8818309906e+01 7.6944690819e+01 1.7770000000e+00 0.0000e+00 -1.0000e+00
       22  1    3    3    0    0 -4.7517075299e+01 +2.9122709511e+01 -8.7239857613e+01 1.0352196584e+02 0.0000000000e+00 0.0000e+00 -1.0000e+00
<mgrwt>
<rscale>  2 0.12500000E+03</rscale>
<asrwt>0</asrwt>
<pdfrwt beam="1">  1       21 0.30503227E-02 0.12500000E+03</pdfrwt>
<pdfrwt beam="2">  1       21 0.27694685E-01 0.12500000E+03</pdfrwt>
<totfact> 0.75516329E+06</totfact>
</mgrwt>
</event>
<event>
 6      0 +9.8758382e+01 1.25000000e+02 7.54677100e-03 1.12640300e-01
       21 -1    0    0  502  501 +0.0000000000e+00 +0.0000000000e+00 +7.8103962309e+01 7.8103962309e+01 0.0000000000e+00 0.0000e+00 1.0000e+00
       21 -1    0    0  501  502 -0.0000000000e+00 -0.0000000000e+00 -5.0013467749e+01 5.0013467749e+01 0.0000000000e+00 0.0000e+00 1.0000e+00
       25  2    1    2    0    0 +0.0000000000e+00 +0.0000000000e+00 +2.8090494560e+01 1.2811743006e+02 1.2500000000e+02 0.0000e+00 0.0000e+00
      -15  1    3    3    0    0 -4.8128108024e+00 +1.4491961165e+01 +1.1118502925e+01 1.8972583443e+01 1.7770000000e+00 0.0000e+00 -1.0000e+00
       15  1    3    3    0    0 +8.3745049509e+00 +2.5746860483e+01 +5.0051472570e+01 5.6932774335e+01 1.7770000000e+00 0.0000e+00 -1.0000e+00
       22  1    3    3    0    0 -3.5616941485e+00 -4.0238821647e+01 -3.3079480936e+01 5.2212072280e+01 0.0000000000e+00 0.0000e+00 -1.0000e+00
<mgrwt>
<rscale>  2 0.12500000E+03</rscale>
<asrwt>0</asrwt>
<pdfrwt beam="1">  1       21 0.11485877E-01 0.12500000E+03</pdfrwt>
<pdfrwt beam="2">  1       21 0.73549217E-02 0.12500000E+03</pdfrwt>
<totfact> 0.88436937E+06</totfact>
</mgrwt>
</event>
<event>
 6      0 +9.8758382e+01 1.25000000e+02 7.54677100e-03 1.12640300e-01
       21 -1    0    0  502  501 +0.0000000000e+00 +0.0000000000e+00 +3.5373188323e+02 3.5373188323e+02 0.0000000000e+00 0.0000e+00 -1.0000e+00
       21 -1    0    0  501  502 -0.0000000000e+00 -0.0000000000e+00 -1.1042968376e+01 1.1042968376e+01 0.0000000000e+00 0.0000e+00 -1.0000e+00
       25  2    1    2    0    0 +0.0000000000e+00 +0.0000000000e+00 +3.4268891486e+02 3.6477485161e+02 1.2500000000e+02 0.0000e+00 0.0000e+00
      -15  1    3    3    0    0 +2.1485989215e+01 -4.3698374122e+00 +1.4818239761e+02 1.4980628792e+02 1.7770000000e+00 0.0000e+00 -1.0000e+00
       15  1    3    3    0    0 +1.4449874772e+01 +3.0002052299e+01 +1.4436291313e+02 1.4816453840e+02 1.7770000000e+00 0.0000e+00 -1.0000e+00
       22  1    3    3    0    0 -3.5935863987e+01 -2.5632214886e+01 +5.0143604131e+01 6.6804025295e+01 0.0000000000e+00 0.0000e+00 -1.0000e+00
<mgrwt>
<rscale>  2 0.12500000E+03</rscale>
<asrwt>0</asrwt>
<pdfrwt beam="1">  1       21 0.52019387E-01 0.12500000E+03</pdfrwt>
<pdfrwt beam="2">  1       21 0.16239662E-02 0.12500000E+03</pdfrwt>
<totfact> 0.57037449E+06</totfact>
</mgrwt>
</event>
<event>
 6      0 +9.8758382e+01 1.25000000e+02 7.54677100e-03 1.12640300e-01
       21 -1    0    0  502  501 +0.0000000000e+00 +0.0000000000e+00 +3.5718825372e+00 3.5718825372e+00 0.0000000000e+00 0.0000e+00 1.0000e+00
       21 -1    0    0  501  502 -0.0000000000e+00 -0.0000000000e+00 -1.0936109907e+03 1.0936109907e+03 0.0000000000e+00 0.0000e+00 1.0000e+00
       25  2    1    2    0    0 +0.0000000000e+00 +0.0000000000e+00 -1.0900391081e+03 1.0971828732e+03 1.2500000000e+02 0.0000e+00 0.0000e+00
      -15  1    3    3    0    0 +3.4559454120e+00 -1.3739625434e+00 -6.2995859097e+01 6.3130557768e+01 1.7770000000e+00 0.0000e+00 -1.0000e+00
       15  1    3    3    0    0 -8.3985283987e+00 +5.0641523879e+01 -8.0120431307e+02 8.0284905694e+02 1.7770000000e+00 0.0000e+00 -1.0000e+00
       22  1    3    3    0    0 +4.9425829868e+00 -4.9267561336e+01 -2.2583893398e+02 2.3120325652e+02 0.0000000000e+00 0.0000e+00 -1.0000e+00
<mgrwt>
<rscale>  2 0.12500000E+03</rscale>
<asrwt>0</asrwt>
<pdfrwt beam="1">  1       21 0.52527681E-03 0.12500000E+03</pdfrwt>
<pdfrwt beam="2">  1       21 0.16082515E+00 0.12500000E+03</pdfrwt>
<totfact> 0.18479450E+06</totfact>
</mgrwt>
</event>
<event>
 6      0 +9.8758382e+01 1.25000000e+02 7.54677100e-03 1.12640300e-01
       21 -1    0    0  502  501 +0.0000000000e+00 +0.0000000000e+00 +7.7256484563e+00 7.7256484563e+00 0.0000000000e+00 0.0000e+00 1.0000e+00
       21 -1    0    0  501  502 -0.0000000000e+00 -0.0000000000e+00 -5.0562098730e+02 5.0562098730e+02 0.0000000000e+00 0.0000e+00 1.0000e+00
       25  2    1    2    0    0 +0.0000000000e+00 +0.0000000000e+00 -4.9789533884e+02 5.1334663576e+02 1.2500000000e+02 0.0000e+00 0.0000e+00
      -15  1    3    3    0    0 +3.5617718947e+01 -4.0168217350e+01 -2.8338540133e+02 2.8843118937e+02 1.7770000000e+00 0.0000e+00 -1.0000e+00
       15  1    3    3    0    0 -1.1946821452e+01 +2.6012884564e+01 -1.7108427587e+02 1.7347156506e+02 1.7770000000e+00 0.0000e+00 -1.0000e+00
       22  1    3    3    0    0 -2.3670897495e+01 +1.4155332786e+01 -4.3425661524e+01 5.1443881204e+01 0.0000000000e+00 0.0000e+00 -1.0000e+00
<mgrwt>
<rscale>  2 0.12500000E+03</rscale>
<asrwt>0</asrwt>
<pdfrwt beam="1">  1       21 0.11361247E-02 0.12500000E+03</pdfrwt>
<pdfrwt beam="2">  1       21 0.74356032E-01 0.12500000E+03</pdfrwt>
<totfact> 0.44348072E+06</totfact>
</mgrwt>
</event>
<event>
 6      0 +9.8758382e+01 1.25000000e+02 7.54677100e-03 1.12640300e-01
       21 -1    0    0  502  501 +0.0000000000e+00 +0.0000000000e+00 +2.2090219581e+01 2.2090219581e+01 0.0000000000e+00 0.0000e+00 1.0000e+00
       21 -1    0    0  501  502 -0.0000000000e+00 -0.0000000000e+00 -1.7683165102e+02 1.7683165102e+02 0.0000000000e+00 0.0000e+00 1.0000e+00
       25  2    1    2    0    0 +0.0000000000e+00 +0.0000000000e+00 -1.5474143144e+02 1.9892187060e+02 1.2500000000e+02 0.0000e+00 0.0000e+00
      -15  1    3    3    0    0 -3.1707942187e+01 -2.1536675589e+01 -2.7003597720e+01 4.6920933622e+01 1.7770000000e+00 0.0000e+00 -1.0000e+00
       15  1    3    3    0    0 +5.9647769049e+00 +7.1196057615e+00 +8.4328324098e+00 1.2670348897e+01 1.7770000000e+00 0.0000e+00 -1.0000e+00
       22  1    3    3    0    0 +2.5743165282e+01 +1.4417069828e+01 -1.3617066614e+02 1.3933058809e+02 0.0000000000e+00 0.0000e+00 -1.0000e+00
<mgrwt>
<rscale>  2 0.12500000E+03</rscale>
<asrwt>0</asrwt>
<pdfrwt beam="1">  1       21 0.32485617E-02 0.12500000E+03</pdfrwt>
<pdfrwt beam="2">  1       21 0.26004655E-01 0.12500000E+03</pdfrwt>
<totfact> 0.76976498E+06</totfact>
</mgrwt>
</event>
<event>
 6      0 +9.8758382e+01 1.25000000e+02 7.54677100e-03 1.12640300e-01
       21 -1    0    0  502  501 +0.0000000000e+00 +0.0000000000e+00 +2.0618613332e+02 2.0618613332e+02 0.0000000000e+00 0.0000e+00 1.0000e+00
       21 -1    0    0  501  502 -0.0000000000e+00 -0.0000000000e+00 -1.8945260465e+01 1.8945260465e+01 0.0000000000e+00 0.0000e+00 1.0000e+00
       25  2    1    2    0    0 +0.0000000000e+00 +0.0000000000e+00 +1.8724087285e+02 2.2513139378e+02 1.2500000000e+02 0.0000e+00 0.0000e+00
      -15  1    3    3    0    0 +2.3750586572e+01 -6.5576065478e+00 -6.1779499903e+00 2.5464040553e+01 1.7770000000e+00 0.0000e+00 -1.0000e+00
       15  1    3    3    0    0 -2.3167967120e-02 -1.3385105244e+01 +2.4934613033e+01 2.8355850106e+01 1.7770000000e+00 0.0000e+00 -1.0000e+00
       22  1    3    3    0    0 -2.3727418605e+01 +1.9942711792e+01 +1.6848420981e+02 1.7131150312e+02 0.0000000000e+00 0.0000e+00 -1.0000e+00
<mgrwt>
<rscale>  2 0.12500000E+03</rscale>
<asrwt>0</asrwt>
<pdfrwt beam="1">  1       21 0.30321489E-01 0.12500000E+03</pdfrwt>
<pdfrwt beam="2">  1       21 0.27860678E-02 0.12500000E+03</pdfrwt>
<totfact> 0.73293749E+06</totfact>
</mgrwt>
</event>
<event>
 6      0 +9.8758382e+01 1.25000000e+02 7.54677100e-03 1.12640300e-01
       21 -1    0    0  502  501 +0.0000000000e+00 +0.0000000000e+00 +2.3884522669e+01 2.3884522669e+01 0.0000000000e+00 0.0000e+00 1.0000e+00
       21 -1    0    0  501  502 -0.0000000000e+00 -0.0000000000e+00 -1.6354733374e+02 1.6354733374e+02 0.0000000000e+00 0.0000e+00 1.0000e+00
       25  2    1    2    0    0 +0.0000000000e+00 +0.0000000000e+00 -1.3966281107e+02 1.8743185640e+02 1.2500000000e+02 0.0000e+00 0.0000e+00
      -15  1    3    3    0    0 +2.5217760514e+00 -2.2041080813e+01 -4.9397131188e+01 5.4179358583e+01 1.7770000000e+00 0.0000e+00 -1.0000e+00
       15  1    3    3    0    0 -4.1247698581e+01 +2.8914617358e+01 -7.6439490922e+01 9.1561898389e+01 1.7770000000e+00 0.0000e+00 -1.0000e+00
       22  1    3    3    0    0 +3.8725922529e+01 -6.8735365458e+00 -1.3826188969e+01 4.1690599442e+01 0.0000000000e+00 0.0000e+00 -1.0000e+00
<mgrwt>
<rscale>  2 0.12500000E+03</rscale>
<asrwt>0</asrwt>
<pdfrwt beam="1">  1       21 0.35124298E-02 0.12500000E+03</pdfrwt>
<pdfrwt beam="2">  1       21 0.24051078E-01 0.12500000E+03</pdfrwt>
<totfact> 0.78681690E+06</totfact>
</mgrwt>
</event>
<event>
 6      0 +9.8758382e+01 1.25000000e+02 7.54677100e-03 1.12640300e-01
       21 -1    0    0  502  501 +0.0000000000e+00 +0.0000000000e+00 +4.4837833009e+02 4.4837833009e+02 0.0000000000e+00 0.0000e+00 -1.0000e+00
       21 -1    0    0  501  502 -0.0000000000e+00 -0.0000000000e+00 -8.7119509080e+00 8.7119509080e+00 0.0000000000e+00 0.0000e+00 -1.0000e+00
       25  2    1    2    0    0 +0.0000000000e+00 +0.0000000000e+00 +4.3966637919e+02 4.5709028100e+02 1.2500000000e+02 0.0000e+00 0.0000e+00
      -15  1    3    3    0    0 -9.6773252531e+00 -1.5142936068e+01 +3.0439947369e+02 3.0493467570e+02 1.7770000000e+00 0.0000e+00 -1.0000e+00
       15  1    3    3    0    0 +8.0650271774e+00 -2.6511577198e+01 +6.0061150431e+01 6.6169539133e+01 1.7770000000e+00 0.0000e+00 -1.0000e+00
       22  1    3    3    0    0 +1.6122980757e+00 +4.1654513266e+01 +7.5205755149e+01 8.5986066243e+01 0.0000000000e+00 0.0000e+00 -1.0000e+00
<mgrwt>
<rscale>  2 0.12500000E+03</rscale>
<asrwt>0</asrwt>
<pdfrwt beam="1">  1       21 0.65937974E-01 0.12500000E+03</pdfrwt>
<pdfrwt beam="2">  1       21 0.12811696E-02 0.12500000E+03</pdfrwt>
<totfact> 0.48689984E+06</totfact>
</mgrwt>
</event>
<event>
 6      0 +9.8758382e+01 1.25000000e+02 7.54677100e-03 1.12640300e-01
       21 -1    0    0  502  501 +0.0000000000e+00 +0.0000000000e+00 +1.0613237908e+02 1.0613237908e+02 0.0000000000e+00 0.0000e+00 1.0000e+00
       21 -1    0    0  501  502 -0.0000000000e+00 -0.0000000000e+00 -3.6805450269e+01 3.6805450269e+01 0.0000000000e+00 0.0000e+00 1.0000e+00
       25  2    1    2    0    0 +0.0000000000e+00 +0.0000000000e+00 +6.9326928809e+01 1.4293782935e+02 1.2500000000e+02 0.0000e+00 0.0000e+00
      -15  1    3    3    0    0 -1.8006368830e+01 -1.7001083268e+01 -1.5077099408e+01 2.9047251270e+01 1.7770000000e+00 0.0000e+00 -1.0000e+00
       15  1    3    3    0    0 -5.6797128985e-01 -2.3568954128e+01 +7.1907996204e+00 2.4712011618e+01 1.7770000000e+00 0.0000e+00 -1.0000e+00
       22  1    3    3    0    0 +1.8574340120e+01 +4.0570037396e+01 +7.7213228595e+01 8.9178566456e+01 0.0000000000e+00 0.0000e+00 -1.0000e+00
<mgrwt>
<rscale>  2 0.12500000E+03</rscale>
<asrwt>0</asrwt>
<pdfrwt beam="1">  1       21 0.15607703E-01 0.12500000E+03</pdfrwt>
<pdfrwt beam="2">  1       21 0.54125662E-02 0.12500000E+03</pdfrwt>
<totfact> 0.85830990E+06</totfact>
</mgrwt>
</event>
<event>
 6      0 +9.8758382e+01 1.25000000e+02 7.54677100e-03 1.12640300e-01
       21 -1    0    0  502  501 +0.0000000000e+00 +0.0000000000e+00 +3.5128523582e+02 3.5128523582e+02 0.0000000000e+00 0.0000e+00 1.0000e+00
       21 -1    0    0  501  502 -0.0000000000e+00 -0.0000000000e+00 -1.1119880945e+01 1.1119880945e+01 0.0000000000e+00 0.0000e+00 1.0000e+00
       25  2    1    2    0    0 +0.0000000000e+00 +0.0000000000e+00 +3.4016535487e+02 3.6240511676e+02 1.2500000000e+02 0.0000e+00 0.0000e+00
      -15  1    3    3    0    0 -2.1469024948e+01 +2.2367876896e+01 +7.0908465173e+01 7.7410652441e+01 1.7770000000e+00 0.0000e+00 -1.0000e+00
       15  1    3    3    0    0 -2.7817466527e+01 +9.6145726004e+00 +5.0431776809e+01 5.8418946339e+01 1.7770000000e+00 0.0000e+00 -1.0000e+00
       22  1    3    3    0    0 +4.9286491475e+01 -3.1982449497e+01 +2.1882511289e+02 2.2657551798e+02 0.0000000000e+00 0.0000e+00 -1.0000e+00
<mgrwt>
<rscale>  2 0.12500000E+03</rscale>
<asrwt>0</asrwt>
<pdfrwt beam="1">  1       21 0.51659586E-01 0.12500000E+03</pdfrwt>
<pdfrwt beam="2">  1       21 0.16352768E-02 0.12500000E+03</pdfrwt>
<totfact> 0.57273770E+06</totfact>
</mgrwt>
</event>
<event>
 6      0 +9.8758382e+01 1.25000000e+02 7.54677100e-03 1.12640300e-01
       21 -1    0    0  502  501 +0.0000000000e+00 +0.0000000000e+00 +8.3357282741e+01 8.3357282741e+01 0.0000000000e+00 0.0000e+00 -1.0000e+00
       21 -1    0    0  501  502 -0.0000000000e+00 -0.0000000000e+00 -4.6861532329e+01 4.6861532329e+01 0.0000000000e+00 0.0000e+00 -1.0000e+00
       25  2    1    2    0    0 +0.0000000000e+00 +0.0000000000e+00 +3.6495750412e+01 1.3021881507e+02 1.2500000000e+02 0.0000e+00 0.0000e+00
      -15  1    3    3    0    0 -1.6973671858e+01 -2.1421976248e+01 +2.7094095385e+01 3.8526021550e+01 1.7770000000e+00 0.0000e+00 -1.0000e+00
       15  1    3    3    0    0 -2.7381321062e+01 -1.6633055443e+01 -1.9974970198e+00 3.2148763582e+01 1.7770000000e+00 0.0000e+00 -1.0000e+00
       22  1    3    3    0    0 +4.4354992919e+01 +3.8055031692e+01 +1.1399152047e+01 5.9544029938e+01 0.0000000000e+00 0.0000e+00 -1.0000e+00
<mgrwt>
<rscale>  2 0.12500000E+03</rscale>
<asrwt>0</asrwt>
<pdfrwt beam="1">  1       21 0.12258424E-01 0.12500000E+03</pdfrwt>
<pdfrwt beam="2">  1       21 0.68914018E-02 0.12500000E+03</pdfrwt>
<totfact> 0.88057995E+06</totfact>
</mgrwt>
</event>
<event>
 6      0 +9.8758382e+01 1.25000000e+02 7.54677100e-03 1.12640300e-01
       21 -1    0    0  502  501 +0.0000000000e+00 +0.0000000000e+00 +1.0422790195e+02 1.0422790195e+02 0.0000000000e+00 0.0000e+00 -1.0000e+00
       21 -1    0    0  501  502 -0.0000000000e+00 -0.0000000000e+00 -3.7477968250e+01 3.7477968250e+01 0.0000000000e+00 0.0000e+00 -1.0000e+00
       25  2    1    2    0    0 +0.0000000000e+00 +0.0000000000e+00 +6.6749933700e+01 1.4170587020e+02 1.2500000000e+02 0.0000e+00 0.0000e+00
      -15  1    3    3    0    0 -2.3937012518e+01 -1.0415174075e+01 +3.5410769034e+01 4.4028816834e+01 1.7770000000e+00 0.0000e+00 -1.0000e+00
       15  1    3    3    0    0 +1.5794467895e+01 -3.9036214274e+01 +1.0764221671e+01 4.3500775144e+01 1.7770000000e+00 0.0000e+00 -1.0000e+00
       22  1    3    3    0    0 +8.1425446225e+00 +4.9451388350e+01 +2.0574942995e+01 5.4176278221e+01 0.0000000000e+00 0.0000e+00 -1.0000e+00
<mgrwt>
<rscale>  2 0.12500000E+03</rscale>
<asrwt>0</asrwt>
<pdfrwt beam="1">  1       21 0.15327633E-01 0.12500000E+03</pdfrwt>
<pdfrwt beam="2">  1       21 0.55114660E-02 0.12500000E+03</pdfrwt>
<totfact> 0.86044886E+06</totfact>
</mgrwt>
</event>
<event>
 6      0 +9.8758382e+01 1.25000000e+02 7.54677100e-03 1.12640300e-01
       21 -1    0    0  502  501 +0.0000000000e+00 +0.0000000000e+00 +3.4505228597e+01 3.4505228597e+01 0.0000000000e+00 0.0000e+00 1.0000e+00
       21 -1    0    0  501  502 -0.0000000000e+00 -0.0000000000e+00 -1.1320748069e+02 1.1320748069e+02 0.0000000000e+00 0.0000e+00 1.0000e+00
       25  2    1    2    0    0 +0.0000000000e+00 +0.0000000000e+00 -7.8702252091e+01 1.4771270928e+02 1.2500000000e+02 0.0000e+00 0.0000e+00
      -15  1    3    3    0    0 +2.3607994975e+01 -2.1345397970e+01 -2.8973536759e+00 3.2008058806e+01 1.7770000000e+00 0.0000e+00 -1.0000e+00
       15  1    3    3    0    0 -3.9303724650e+01 -1.7576931076e+01 -5.1711802998e+01 6.7312699959e+01 1.7770000000e+00 0.0000e+00 -1.0000e+00
       22  1    3    3    0    0 +1.5695729675e+01 +3.8922329045e+01 -2.4093095420e+01 4.8391950521e+01 0.0000000000e+00 0.0000e+00 -1.0000e+00
<mgrwt>
<rscale>  2 0.12500000E+03</rscale>
<asrwt>0</asrwt>
<pdfrwt beam="1">  1       21 0.50742983E-02 0.12500000E+03</pdfrwt>
<pdfrwt beam="2">  1       21 0.16648159E-01 0.12500000E+03</pdfrwt>
<totfact> 0.85011109E+06</totfact>
</mgrwt>
</event>
<event>
 6      0 +9.8758382e+01 1.25000000e+02 7.54677100e-03 1.12640300e-01
       21 -1    0    0  502  501 +0.0000000000e+00 +0.0000000000e+00 +1.0062960514e+02 1.0062960514e+02 0.0000000000e+00 0.0000e+00 -1.0000e+00
       21 -1    0    0  501  502 -0.0000000000e+00 -0.0000000000e+00 -3.8818099253e+01 3.8818099253e+01 0.0000000000e+00 0.0000e+00 -1.0000e+00
       25  2    1    2    0    0 +0.0000000000e+00 +0.0000000000e+00 +6.1811505884e+01 1.3944770439e+02 1.2500000000e+02 0.0000e+00 0.0000e+00
      -15  1    3    3    0    0 +4.8985805541e+01 -2.2762310224e+01 +4.3715091016e+00 5.4221764377e+01 1.7770000000e+00 0.0000e+00 -1.0000e+00
       15  1    3    3    0    0 -2.4371512666e+01 +2.8255797249e+01 +2.9607460546e+01 4.7666761551e+01 1.7770000000e+00 0.0000e+00 -1.0000e+00
       22  1    3    3    0    0 -2.4614292876e+01 -5.4934870249e+00 +2.7832536236e+01 3.7559178463e+01 0.0000000000e+00 0.0000e+00 -1.0000e+00
<mgrwt>
<rscale>  2 0.12500000E+03</rscale>
<asrwt>0</asrwt>
<pdfrwt beam="1">  1       21 0.14798471E-01 0.12500000E+03</pdfrwt>
<pdfrwt beam="2">  1       21 0.57085440E-02 0.12500000E+03</pdfrwt>
<totfact> 0.86435741E+06</totfact>
</mgrwt>
</event>
<event>
 6      0 +9.8758382e+01 1.25000000e+02 7.54677100e-03 1.12640300e-01
       21 -1    0    0  502  501 +0.0000000000e+00 +0.0000000000e+00 +2.7660452848e+01 2.7660452848e+01 0.0000000000e+00 0.0000e+00 -1.0000e+00
       21 -1    0    0  501  502 -0.0000000000e+00 -0.0000000000e+00 -1.4122147680e+02 1.4122147680e+02 0.0000000000e+00 0.0000e+00 -1.0000e+00
       25  2    1    2    0    0 +0.0000000000e+00 +0.0000000000e+00 -1.1356102395e+02 1.6888192964e+02 1.2500000000e+02 0.0000e+00 0.0000e+00
      -15  1    3    3    0    0 +1.8968602833e+01 +2.6674212168e+01 -3.6413063326e+01 4.8993779177e+01 1.7770000000e+00 0.0000e+00 -1.0000e+00
       15  1    3    3    0    0 -2.2978317363e+01 +6.4276417995e+00 +1.0487231147e+01 2.6123885507e+01 1.7770000000e+00 0.0000e+00 -1.0000e+00
       22  1    3    3    0    0 +4.0097145296e+00 -3.3101853967e+01 -8.7635191777e+01 9.3764264965e+01 0.0000000000e+00 0.0000e+00 -1.0000e+00
<mgrwt>
<rscale>  2 0.12500000E+03</rscale>
<asrwt>0</asrwt>
<pdfrwt beam="1">  1       21 0.40677137E-02 0.12500000E+03</pdfrwt>
<pdfrwt beam="2">  1       21 0.20767864E-01 0.12500000E+03</pdfrwt>
<totfact> 0.81542090E+06</totfact>
</mgrwt>
</event>
<event>
 6      0 +9.8758382e+01 1.25000000e+02 7.54677100e-03 1.12640300e-01
       21 -1    0    0  502  501 +0.0000000000e+00 +0.0000000000e+00 +2.9402792643e+02 2.9402792643e+02 0.0000000000e+00 0.0000e+00 -1.0000e+00
       21 -1    0    0  501  502 -0.0000000000e+00 -0.0000000000e+00 -1.3285302683e+01 1.3285302683e+01 0.0000000000e+00 0.0000e+00 -1.0000e+00
       25  2    1    2    0    0 +0.0000000000e+00 +0.0000000000e+00 +2.8074262375e+02 3.0731322911e+02 1.2500000000e+02 0.0000e+00 0.0000e+00
      -15  1    3    3    0    0 +2.3618942369e+01 -2.4021430673e+00 +1.9831520503e+01 3.0985023227e+01 1.7770000000e+00 0.0000e+00 -1.0000e+00
       15  1    3    3    0    0 +2.2300785099e+01 +2.7535361472e+01 +1.4271473041e+02 1.4705840048e+02 1.7770000000e+00 0.0000e+00 -1.0000e+00
       22  1    3    3    0    0 -4.5919727468e+01 -2.5133218405e+01 +1.1819637287e+02 1.2926980544e+02 0.0000000000e+00 0.0000e+00 -1.0000e+00
<mgrwt>
<rscale>  2 0.12500000E+03</rscale>
<asrwt>0</asrwt>
<pdfrwt beam="1">  1       21 0.43239397E-01 0.12500000E+03</pdfrwt>
<pdfrwt beam="2">  1       21 0.19537212E-02 0.12500000E+03</pdfrwt>
<totfact> 0.63117143E+06</totfact>
</mgrwt>
</event>
<event>
 6      0 +9.8758382e+01 1.25000000e+02 7.54677100e-03 1.12640300e-01
       21 -1    0    0  502  501 +0.0000000000e+00 +0.0000000000e+00 +3.5348416582e+01 3.5348416582e+01 0.0000000000e+00 0.0000e+00 1.0000e+00
       21 -1    0    0  501  502 -0.0000000000e+00 -0.0000000000e+00 -1.1050707154e+02 1.1050707154e+02 0.0000000000e+00 0.0000e+00 1.0000e+00
       25  2    1    2    0    0 +0.0000000000e+00 +0.0000000000e+00 -7.5158654957e+01 1.4585548812e+02 1.2500000000e+02 0.0000e+00 0.0000e+00
      -15  1    3    3    0    0 +2.1063937292e+01 -9.8323063917e+00 -4.7703663533e+01 5.3095771458e+01 1.7770000000e+00 0.0000e+00 -1.0000e+00
       15  1    3    3    0    0 -2.0660867690e+00 +2.5303131015e+01 -5.2115608673e+01 5.7997513309e+01 1.7770000000e+00 0.0000e+00 -1.0000e+00
       22  1    3    3    0    0 -1.8997850523e+01 -1.5470824624e+01 +2.4660617247e+01 3.4762203355e+01 0.0000000000e+00 0.0000e+00 -1.0000e+00
<mgrwt>
<rscale>  2 0.12500000E+03</rscale>
<asrwt>0</asrwt>
<pdfrwt beam="1">  1       21 0.51982965E-02 0.12500000E+03</pdfrwt>
<pdfrwt beam="2">  1       21 0.16251040E-01 0.12500000E+03</pdfrwt>
<totfact> 0.85327478E+06</totfact>
</mgrwt>
</event>
<event>
 6      0 +9.8758382e+01 1.25000000e+02 7.54677100e-03 1.12640300e-01
       21 -1    0    0  502  501 +0.0000000000e+00 +0.0000000000e+00 +6.5109634382e+01 6.5109634382e+01 0.0000000000e+00 0.0000e+00 1.0000e+00
       21 -1    0    0  501  502 -0.0000000000e+00 -0.0000000000e+00 -5.9994961376e+01 5.9994961376e+01 0.0000000000e+00 0.0000e+00 1.0000e+00
       25  2    1    2    0    0 +0.0000000000e+00 +0.0000000000e+00 +5.1146730062e+00 1.2510459576e+02 1.2500000000e+02 0.0000e+00 0.0000e+00
      -15  1    3    3    0    0 +2.1352360301e+01 -5.8912830899e+00 +1.1510724712e+00 2.2251139380e+01 1.7770000000e+00 0.0000e+00 -1.0000e+00
       15  1    3    3    0    0 -3.8281229761e+01 +4.5610661039e+01 +3.4720197120e+00 5.9674094902e+01 1.7770000000e+00 0.0000e+00 -1.0000e+00
       22  1    3    3    0    0 +1.6928869460e+01 -3.9719377949e+01 +4.9158082303e-01 4.3179361478e+01 0.0000000000e+00 0.0000e+00 -1.0000e+00
<mgrwt>
<rscale>  2 0.12500000E+03</rscale>
<asrwt>0</asrwt>
<pdfrwt beam="1">  1       21 0.95749462E-02 0.12500000E+03</pdfrwt>
<pdfrwt beam="2">  1       21 0.88227884E-02 0.12500000E+03</pdfrwt>
<totfact> 0.88980117E+06</totfact>
</mgrwt>
</event>
<event>
 6      0 +9.8758382e+01 1.25000000e+02 7.54677100e-03 1.12640300e-01
       21 -1    0    0  502  501 +0.0000000000e+00 +0.0000000000e+00 +1.4122016072e+02 1.4122016072e+02 0.0000000000e+00 0.0000e+00 1.0000e+00
       21 -1    0    0  501  502 -0.0000000000e+00 -0.0000000000e+00 -2.7660710624e+01 2.7660710624e+01 0.0000000000e+00 0.0000e+00 1.0000e+00
       25  2    1    2    0    0 +0.0000000000e+00 +0.0000000000e+00 +1.1355945010e+02 1.6888087134e+02 1.2500000000e+02 0.0000e+00 0.0000e+00
      -15  1    3    3    0    0 +7.8198216642e+00 -2.2334457466e+01 +4.4518409826e+01 5.0448232314e+01 1.7770000000e+00 0.0000e+00 -1.0000e+00
       15  1    3    3    0    0 +7.3778249736e-01 +4.2122473394e+01 +8.2757040989e+01 9.2880205911e+01 1.7770000000e+00 0.0000e+00 -1.0000e+00
       22  1    3    3    0    0 -8.5576041616e+00 -1.9788015928e+01 -1.3716000707e+01 2.5552433128e+01 0.0000000000e+00 0.0000e+00 -1.0000e+00
<mgrwt>
<rscale>  2 0.12500000E+03</rscale>
<asrwt>0</asrwt>
<pdfrwt beam="1">  1       21 0.20767670E-01 0.12500000E+03</pdfrwt>
<pdfrwt beam="2">  1       21 0.40677516E-02 0.12500000E+03</pdfrwt>
<totfact> 0.81542259E+06</totfact>
</mgrwt>
</event>
<event>
 6      0 +9.8758382e+01 1.25000000e+02 7.54677100e-03 1.12640300e-01
       21 -1    0    0  502  501 +0.0000000000e+00 +0.0000000000e+00 +7.2893373596e+01 7.2893373596e+01 0.0000000000e+00 0.0000e+00 1.0000e+00
       21 -1    0    0  501  502 -0.0000000000e+00 -0.0000000000e+00 -5.3588547316e+01 5.3588547316e+01 0.0000000000e+00 0.0000e+00 1.0000e+00
       25  2    1    2    0    0 +0.0000000000e+00 +0.0000000000e+00 +1.9304826279e+01 1.2648192091e+02 1.2500000000e+02 0.0000e+00 0.0000e+00
      -15  1    3    3    0    0 +3.7398820245e+01 -3.0543868401e+00 +3.9426846930e+01 5.4457644298e+01 1.7770000000e+00 0.0000e+00 -1.0000e+00
       15  1    3    3    0    0 -3.6360294904e+01 +2.1768784296e+01 -2.8901822200e+01 5.1326640946e+01 1.7770000000e+00 0.0000e+00 -1.0000e+00
       22  1    3    3    0    0 -1.0385253405e+00 -1.8714397456e+01 +8.7798015486e+00 2.0697635668e+01 0.0000000000e+00 0.0000e+00 -1.0000e+00
<mgrwt>
<rscale>  2 0.12500000E+03</rscale>
<asrwt>0</asrwt>
<pdfrwt beam="1">  1       21 0.10719614E-01 0.12500000E+03</pdfrwt>
<pdfrwt beam="2">  1       21 0.78806687E-02 0.12500000E+03</pdfrwt>
<totfact> 0.88725310E+06</totfact>
</mgrwt>
</event>
<event>
 6      0 +9.8758382e+01 1.25000000e+02 7.54677100e-03 1.12640300e-01
       21 -1    0    0  502  501 +0.0000000000e+00 +0.0000000000e+00 +6.2104169847e+00 6.2104169847e+00 0.0000000000e+00 0.0000e+00 -1.0000e+00
       21 -1    0    0  501  502 -0.0000000000e+00 -0.0000000000e+00 -6.2898353035e+02 6.2898353035e+02 0.0000000000e+00 0.0000e+00 -1.0000e+00
       25  2    1    2    0    0 +0.0000000000e+00 +0.0000000000e+00 -6.2277311337e+02 6.3519394734e+02 1.2500000000e+02 0.0000e+00 0.0000e+00
      -15  1    3    3    0    0 +2.1542689676e+01 +1.1572830241e+01 -1.4477372610e+02 1.4683530698e+02 1.7770000000e+00 0.0000e+00 -1.0000e+00
       15  1    3    3    0    0 +1.9687820416e+01 -1.6838844750e+01 -3.9181548621e+02 3.9267504368e+02 1.7770000000e+00 0.0000e+00 -1.0000e+00
       22  1    3    3    0    0 -4.1230510092e+01 +5.2660145093e+00 -8.6183901038e+01 9.5683596659e+01 0.0000000000e+00 0.0000e+00 -1.0000e+00
<mgrwt>
<rscale>  2 0.12500000E+03</rscale>
<asrwt>0</asrwt>
<pdfrwt beam="1">  1       21 0.91329632E-03 0.12500000E+03</pdfrwt>
<pdfrwt beam="2">  1       21 0.92497607E-01 0.12500000E+03</pdfrwt>
<totfact> 0.36383888E+06</totfact>
</mgrwt>
</event>
<event>
 6      0 +9.8758382e+01 1.25000000e+02 7.54677100e-03 1.12640300e-01
       21 -1    0    0  502  501 +0.0000000000e+00 +0.0000000000e+00 +1.7277880374e+02 1.7277880374e+02 0.0000000000e+00 0.0000e+00 1.0000e+00
       21 -1    0    0  501  502 -0.0000000000e+00 -0.0000000000e+00 -2.2608386651e+01 2.2608386651e+01 0.0000000000e+00 0.0000e+00 1.0000e+00
       25  2    1    2    0    0 +0.0000000000e+00 +0.0000000000e+00 +1.5017041708e+02 1.9538719039e+02 1.2500000000e+02 0.0000e+00 0.0000e+00
      -15  1    3    3    0    0 -4.0847319408e+00 -1.1370159904e+01 +2.4531545836e+01 2.7402920307e+01 1.7770000000e+00 0.0000e+00 -1.0000e+00
       15  1    3    3    0    0 -5.2680981401e+01 -2.7993009252e+00 +5.4415427128e+01 7.5811069941e+01 1.7770000000e+00 0.0000e+00 -1.0000e+00
       22  1    3    3    0    0 +5.6765713342e+01 +1.4169460829e+01 +7.1223444105e+01 9.2173200127e+01 0.0000000000e+00 0.0000e+00 -1.0000e+00
<mgrwt>
<rscale>  2 0.12500000E+03</rscale>
<asrwt>0</asrwt>
<pdfrwt beam="1">  1       21 0.25408647E-01 0.12500000E+03</pdfrwt>
<pdfrwt beam="2">  1       21 0.33247628E-02 0.12500000E+03</pdfrwt>
<totfact> 0.77497298E+06</totfact>
</mgrwt>
</event>
<event>
 6      0 +9.8758382e+01 1.25000000e+02 7.54677100e-03 1.12640300e-01
       21 -1    0    0  502  501 +0.0000000000e+00 +0.0000000000e+00 +5.0618958955e+01 5.0618958955e+01 0.0000000000e+00 0.0000e+00 -1.0000e+00
       21 -1    0    0  501  502 -0.0000000000e+00 -0.0000000000e+00 -7.7169702432e+01 7.7169702432e+01 0.0000000000e+00 0.0000e+00 -1.0000e+00
       25  2    1    2    0    0 +0.0000000000e+00 +0.0000000000e+00 -2.6550743477e+01 1.2778866139e+02 1.2500000000e+02 0.0000e+00 0.0000e+00
      -15  1    3    3    0    0 +1.1007179091e+01 -3.2608715065e+01 -6.0282476220e+01 6.9437892811e+01 1.7770000000e+00 0.0000e+00 -1.0000e+00
       15  1    3    3    0    0 +9.6378632236e+00 +1.6671618126e+01 +2.3252357876e+01 3.0243365128e+01 1.7770000000e+00 0.0000e+00 -1.0000e+00
       22  1    3    3    0    0 -2.0645042314e+01 +1.5937096939e+01 +1.0479374869e+01 2.8107403448e+01 0.0000000000e+00 0.0000e+00 -1.0000e+00
<mgrwt>
<rscale>  2 0.12500000E+03</rscale>
<asrwt>0</asrwt>
<pdfrwt beam="1">  1       21 0.74439647E-02 0.12500000E+03</pdfrwt>
<pdfrwt beam="2">  1       21 0.11348485E-01 0.12500000E+03</pdfrwt>
<totfact> 0.88494852E+06</totfact>
</mgrwt>
</event>
<event>
 6      0 +9.8758382e+01 1.25000000e+02 7.54677100e-03 1.12640300e-01
       21 -1    0    0  502  501 +0.0000000000e+00 +0.0000000000e+00 +3.2368358938e+03 3.2368358938e+03 0.0000000000e+00 0.0000e+00 -1.0000e+00
       21 -1    0    0  501  502 -0.0000000000e+00 -0.0000000000e+00 -1.2068112589e+00 1.2068112589e+00 0.0000000000e+00 0.0000e+00 -1.0000e+00
       25  2    1    2    0    0 +0.0000000000e+00 +0.0000000000e+00 +3.2356290826e+03 3.2380427051e+03 1.2500000000e+02 0.0000e+00 0.0000e+00
      -15  1    3    3    0    0 +4.3271487848e+01 -1.3356463511e+00 +2.1205967860e+03 2.1210393896e+03 1.7770000000e+00 0.0000e+00 -1.0000e+00
       15  1    3    3    0    0 -2.0562690632e+01 +4.7968794378e+00 +9.6411475948e+02 9.6434758334e+02 1.7770000000e+00 0.0000e+00 -1.0000e+00
       22  1    3    3    0    0 -2.2708797216e+01 -3.4612330867e+00 +1.5091754907e+02 1.5265574415e+02 0.0000000000e+00 0.0000e+00 -1.0000e+00
<mgrwt>
<rscale>  2 0.12500000E+03</rscale>
<asrwt>0</asrwt>
<pdfrwt beam="1">  1       21 0.47599921E+00 0.12500000E+03</pdfrwt>
<pdfrwt beam="2">  1       21 0.17747451E-03 0.12500000E+03</pdfrwt>
<totfact> 0.91445144E+04</totfact>
</mgrwt>
</event>
<event>
 6      0 +9.8758382e+01 1.25000000e+02 7.54677100e-03 1.12640300e-01
       21 -1    0    0  502  501 +0.0000000000e+00 +0.0000000000e+00 +6.0247523839e+01 6.0247523839e+01 0.0000000000e+00 0.0000e+00 -1.0000e+00
       21 -1    0    0  501  502 -0.0000000000e+00 -0.0000000000e+00 -6.4836689562e+01 6.4836689562e+01 0.0000000000e+00 0.0000e+00 -1.0000e+00
       25  2    1    2    0    0 +0.0000000000e+00 +0.0000000000e+00 -4.5891657230e+00 1.2508421340e+02 1.2500000000e+02 0.0000e+00 0.0000e+00
      -15  1    3    3    0    0 +1.1390360383e+01 -1.5065401800e+00 +9.4583803524e+00 1.4987616917e+01 1.7770000000e+00 0.0000e+00 -1.0000e+00
       15  1    3    3    0    0 -3.1471001545e+01 -1.7706567560e+00 +4.0804897630e+01 5.1592214172e+01 1.7770000000e+00 0.0000e+00 -1.0000e+00
       22  1    3    3    0    0 +2.0080641162e+01 +3.2771969360e+00 -5.4852443705e+01 5.8504382312e+01 0.0000000000e+00 0.0000e+00 -1.0000e+00
<mgrwt>
<rscale>  2 0.12500000E+03</rscale>
<asrwt>0</asrwt>
<pdfrwt beam="1">  1       21 0.88599300E-02 0.12500000E+03</pdfrwt>
<pdfrwt beam="2">  1       21 0.95348072E-02 0.12500000E+03</pdfrwt>
<totfact> 0.88984415E+06</totfact>
</mgrwt>
</event>
<event>
 6      0 +9.8758382e+01 1.25000000e+02 7.54677100e-03 1.12640300e-01
       21 -1    0    0  502  501 +0.0000000000e+00 +0.0000000000e+00 +9.4827707096e+01 9.4827707096e+01 0.0000000000e+00 0.0000e+00 -1.0000e+00
       21 -1    0    0  501  502 -0.0000000000e+00 -0.0000000000e+00 -4.1193129304e+01 4.1193129304e+01 0.0000000000e+00 0.0000e+00 -1.0000e+00
       25  2    1    2    0    0 +0.0000000000e+00 +0.0000000000e+00 +5.3634577793e+01 1.3602083640e+02 1.2500000000e+02 0.0000e+00 0.0000e+00
      -15  1    3    3    0    0 -4.5043291753e-01 -2.8902077276e+01 -1.2889767380e+01 3.1699160758e+01 1.7770000000e+00 0.0000e+00 -1.0000e+00
       15  1    3    3    0    0 -2.1494953665e+01 +8.1720298031e+00 +7.0217276745e+01 7.3908313380e+01 1.7770000000e+00 0.0000e+00 -1.0000e+00
       22  1    3    3    0    0 +2.1945386582e+01 +2.0730047473e+01 -3.6929315728e+00 3.0413362262e+01 0.0000000000e+00 0.0000e+00 -1.0000e+00
<mgrwt>
<rscale>  2 0.12500000E+03</rscale>
<asrwt>0</asrwt>
<pdfrwt beam="1">  1       21 0.13945251E-01 0.12500000E+03</pdfrwt>
<pdfrwt beam="2">  1       21 0.60578131E-02 0.12500000E+03</pdfrwt>
<totfact> 0.87027868E+06</totfact>
</mgrwt>
</event>
<event>
 6      0 +9.8758382e+01 1.25000000e+02 7.54677100e-03 1.12640300e-01
       21 -1    0    0  502  501 +0.0000000000e+00 +0.0000000000e+00 +2.8019200337e+01 2.8019200337e+01 0.0000000000e+00 0.0000e+00 -1.0000e+00
       21 -1    0    0  501  502 -0.0000000000e+00 -0.0000000000e+00 -1.3941332918e+02 1.3941332918e+02 0.0000000000e+00 0.0000e+00 -1.0000e+00
       25  2    1    2    0    0 +0.0000000000e+00 +0.0000000000e+00 -1.1139412884e+02 1.6743252952e+02 1.2500000000e+02 0.0000e+00 0.0000e+00
      -15  1    3    3    0    0 -1.5921945649e+01 +1.7911576683e+01 -6.0473316102e+00 2.4780251837e+01 1.7770000000e+00 0.0000e+00 -1.0000e+00
       15  1    3    3    0    0 -2.1713073345e+01 +1.0080213485e+01 +3.3786447143e+00 2.4241312405e+01 1.7770000000e+00 0.0000e+00 -1.0000e+00
       22  1    3    3    0    0 +3.7635018994e+01 -2.7991790168e+01 -1.0872544194e+02 1.1841096527e+02 0.0000000000e+00 0.0000e+00 -1.0000e+00
<mgrwt>
<rscale>  2 0.12500000E+03</rscale>
<asrwt>0</asrwt>
<pdfrwt beam="1">  1       21 0.41204706E-02 0.12500000E+03</pdfrwt>
<pdfrwt beam="2">  1       21 0.20501960E-01 0.12500000E+03</pdfrwt>
<totfact> 0.81773918E+06</totfact>
</mgrwt>
</event>
<event>
 6      0 +9.8758382e+01 1.25000000e+02 7.54677100e-03 1.12640300e-01
       21 -1    0    0  502  501 +0.0000000000e+00 +0.0000000000e+00 +1.0711591840e+02 1.0711591840e+02 0.0000000000e+00 0.0000e+00 1.0000e+00
       21 -1    0    0  501  502 -0.0000000000e+00 -0.0000000000e+00 -3.6467502294e+01 3.6467502294e+01 0.0000000000e+00 0.0000e+00 1.0000e+00
       25  2    1    2    0    0 +0.0000000000e+00 +0.0000000000e+00 +7.0648416108e+01 1.4358342070e+02 1.2500000000e+02 0.0000e+00 0.0000e+00
      -15  1    3    3    0    0 -2.7541338335e+01 -1.6101840739e+00 -2.6070574321e+01 3.7999349791e+01 1.7770000000e+00 0.0000e+00 -1.0000e+00
       15  1    3    3    0    0 -2.4064218608e-01 -3.8453870390e+00 +5.5009729575e+01 5.5173118337e+01 1.7770000000e+00 0.0000e+00 -1.0000e+00
       22  1    3    3    0    0 +2.7781980521e+01 +5.4555711129e+00 +4.1709260851e+01 5.0410952565e+01 0.0000000000e+00 0.0000e+00 -1.0000e+00
<mgrwt>
<rscale>  2 0.12500000E+03</rscale>
<asrwt>0</asrwt>
<pdfrwt beam="1">  1       21 0.15752341E-01 0.12500000E+03</pdfrwt>
<pdfrwt beam="2">  1       21 0.53628680E-02 0.12500000E+03</pdfrwt>
<totfact> 0.85718865E+06</totfact>
</mgrwt>
</event>
<event>
 6      0 +9.8758382e+01 1.25000000e+02 7.54677100e-03 1.12640300e-01
       21 -1    0    0  502  501 +0.0000000000e+00 +0.0000000000e+00 +6.2223205501e+00 6.2223205501e+00 0.0000000000e+00 0.0000e+00 1.0000e+00
       21 -1    0    0  501  502 -0.0000000000e+00 -0.0000000000e+00 -6.2778025795e+02 6.2778025795e+02 0.0000000000e+00 0.0000e+00 1.0000e+00
       25  2    1    2    0    0 +0.0000000000e+00 +0.0000000000e+00 -6.2155793740e+02 6.3400257850e+02 1.2500000000e+02 0.0000e+00 0.0000e+00
      -15  1    3    3    0    0 -6.4216125610e+00 -1.1853155903e+01 -2.7068431072e+01 3.0291782755e+01 1.7770000000e+00 0.0000e+00 -1.0000e+00
       15  1    3    3    0    0 -3.3308142250e+01 +3.0492654403e+01 -1.4013880898e+02 1.4724563771e+02 1.7770000000e+00 0.0000e+00 -1.0000e+00
       22  1    3    3    0    0 +3.9729754811e+01 -1.8639498500e+01 -4.5435069736e+02 4.5646515804e+02 0.0000000000e+00 0.0000e+00 -1.0000e+00
<mgrwt>
<rscale>  2 0.12500000E+03</rscale>
<asrwt>0</asrwt>
<pdfrwt beam="1">  1       21 0.91504710E-03 0.12500000E+03</pdfrwt>
<pdfrwt beam="2">  1       21 0.92320630E-01 0.12500000E+03</pdfrwt>
<totfact> 0.36452178E+06</totfact>
</mgrwt>
</event>
<event>
 6      0 +9.8758382e+01 1.25000000e+02 7.54677100e-03 1.12640300e-01
       21 -1    0    0  502  501 +0.0000000000e+00 +0.0000000000e+00 +2.1571756841e+01 2.1571756841e+01 0.0000000000e+00 0.0000e+00 1.0000e+00
       21 -1    0    0  501  502 -0.0000000000e+00 -0.0000000000e+00 -1.8108168142e+02 1.8108168142e+02 0.0000000000e+00 0.0000e+00 1.0000e+00
       25  2    1    2    0    0 +0.0000000000e+00 +0.0000000000e+00 -1.5950992458e+02 2.0265343826e+02 1.2500000000e+02 0.0000e+00 0.0000e+00
      -15  1    3    3    0    0 -2.3652769930e+01 +3.7810280296e+01 -8.1570198194e+01 9.2983470487e+01 1.7770000000e+00 0.0000e+00 -1.0000e+00
       15  1    3    3    0    0 +1.0138052531e+01 +1.0118657373e+01 -5.1100715952e+01 5.3099983389e+01 1.7770000000e+00 0.0000e+00 -1.0000e+00
       22  1    3    3    0    0 +1.3514717398e+01 -4.7928937670e+01 -2.6839010439e+01 5.6569984389e+01 0.0000000000e+00 0.0000e+00 -1.0000e+00
<mgrwt>
<rscale>  2 0.12500000E+03</rscale>
<asrwt>0</asrwt>
<pdfrwt beam="1">  1       21 0.31723173E-02 0.12500000E+03</pdfrwt>
<pdfrwt beam="2">  1       21 0.26629658E-01 0.12500000E+03</pdfrwt>
<totfact> 0.76433506E+06</totfact>
</mgrwt>
</event>
<event>
 6      0 +9.8758382e+01 1.25000000e+02 7.54677100e-03 1.12640300e-01
       21 -1    0    0  502  501 +0.0000000000e+00 +0.0000000000e+00 +4.1125912357e+00 4.1125912357e+00 0.0000000000e+00 0.0000e+00 -1.0000e+00
       21 -1    0    0  501  502 -0.0000000000e+00 -0.0000000000e+00 -9.4982695243e+02 9.4982695243e+02 0.0000000000e+00 0.0000e+00 -1.0000e+00
       25  2    1    2    0    0 +0.0000000000e+00 +0.0000000000e+00 -9.4571436119e+02 9.5393954366e+02 1.2500000000e+02 0.0000e+00 0.0000e+00
      -15  1    3    3    0    0 +4.1383284935e+00 -6.9238799781e+00 -5.6104910435e+00 9.9850495972e+00 1.7770000000e+00 0.0000e+00 -1.0000e+00
       15  1    3    3    0    0 -2.9469539810e+01 +3.5924549770e+01 -4.8441580292e+02 4.8664243023e+02 1.7770000000e+00 0.0000e+00 -1.0000e+00
       22  1    3    3    0    0 +2.5331211316e+01 -2.9000669792e+01 -4.5568806731e+02 4.5731206392e+02 0.0000000000e+00 0.0000e+00 -1.0000e+00
<mgrwt>
<rscale>  2 0.12500000E+03</rscale>
<asrwt>0</asrwt>
<pdfrwt beam="1">  1       21 0.60479237E-03 0.12500000E+03</pdfrwt>
<pdfrwt beam="2">  1       21 0.13968054E+00 0.12500000E+03</pdfrwt>
<totfact> 0.22609167E+06</totfact>
</mgrwt>
</event>
<event>
 6      0 +9.8758382e+01 1.25000000e+02 7.54677100e-03 1.12640300e-01
       21 -1    0    0  502  501 +0.0000000000e+00 +0.0000000000e+00 +1.3865923086e+02 1.3865923086e+02 0.0000000000e+00 0.0000e+00 1.0000e+00
       21 -1    0    0  501  502 -0.0000000000e+00 -0.0000000000e+00 -2.8171582777e+01 2.8171582777e+01 0.0000000000e+00 0.0000e+00 1.0000e+00
       25  2    1    2    0    0 +0.0000000000e+00 +0.0000000000e+00 +1.1048764808e+02 1.6683081364e+02 1.2500000000e+02 0.0000e+00 0.0000e+00
      -15  1    3    3    0    0 -4.3275817827e+01 -1.6084721707e+01 +9.3460059242e+01 1.0425667884e+02 1.7770000000e+00 0.0000e+00 -1.0000e+00
       15  1    3    3    0    0 +1.2051004802e+01 -6.3828076937e+00 -8.7207447360e+00 1.6284227601e+01 1.7770000000e+00 0.0000e+00 -1.0000e+00
       22  1    3    3    0    0 +3.1224813025e+01 +2.2467529401e+01 +2.5748333568e+01 4.6289907187e+01 0.0000000000e+00 0.0000e+00 -1.0000e+00
<mgrwt>
<rscale>  2 0.12500000E+03</rscale>
<asrwt>0</asrwt>
<pdfrwt beam="1">  1       21 0.20391063E-01 0.12500000E+03</pdfrwt>
<pdfrwt beam="2">  1       21 0.41428799E-02 0.12500000E+03</pdfrwt>
<totfact> 0.81870579E+06</totfact>
</mgrwt>
</event>
<event>
 6      0 +9.8758382e+01 1.25000000e+02 7.54677100e-03 1.12640300e-01
       21 -1    0    0  502  501 +0.0000000000e+00 +0.0000000000e+00 +2.0253077575e+01 2.0253077575e+01 0.0000000000e+00 0.0000e+00 -1.0000e+00
       21 -1    0    0  501  502 -0.0000000000e+00 -0.0000000000e+00 -1.9287192209e+02 1.9287192209e+02 0.0000000000e+00 0.0000e+00 -1.0000e+00
       25  2    1    2    0    0 +0.0000000000e+00 +0.0000000000e+00 -1.7261884451e+02 2.1312499966e+02 1.2500000000e+02 0.0000e+00 0.0000e+00
      -15  1    3    3    0    0 -2.3578094130e+01 +5.0403348653e-01 -1.3193381701e+02 1.3403682469e+02 1.7770000000e+00 0.0000e+00 -1.0000e+00
       15  1    3    3    0    0 +1.4390742022e+01 +2.9416291928e+01 -7.8434380734e+00 3.3720749348e+01 1.7770000000e+00 0.0000e+00 -1.0000e+00
       22  1    3    3    0    0 +9.1873521078e+00 -2.9920325415e+01 -3.2841589427e+01 4.5367425624e+01 0.0000000000e+00 0.0000e+00 -1.0000e+00
<mgrwt>
<rscale>  2 0.12500000E+03</rscale>
<asrwt>0</asrwt>
<pdfrwt beam="1">  1       21 0.29783936E-02 0.12500000E+03</pdfrwt>
<pdfrwt beam="2">  1       21 0.28363519E-01 0.12500000E+03</pdfrwt>
<totfact> 0.74945313E+06</totfact>
</mgrwt>
</event>
<event>
 6      0 +9.8758382e+01 1.25000000e+02 7.54677100e-03 1.12640300e-01
       21 -1    0    0  502  501 +0.0000000000e+00 +0.0000000000e+00 +3.8001777794e+02 3.8001777794e+02 0.0000000000e+00 0.0000e+00 -1.0000e+00
       21 -1    0    0  501  502 -0.0000000000e+00 -0.0000000000e+00 -1.0279124364e+01 1.0279124364e+01 0.0000000000e+00 0.0000e+00 -1.0000e+00
       25  2    1    2    0    0 +0.0000000000e+00 +0.0000000000e+00 +3.6973865358e+02 3.9029690231e+02 1.2500000000e+02 0.0000e+00 0.0000e+00
      -15  1    3    3    0    0 +1.9291611532e+01 -1.1741262200e+01 +9.1237473600e+00 2.4421793719e+01 1.7770000000e+00 0.0000e+00 -1.0000e+00
       15  1    3    3    0    0 -3.6829131892e+00 -5.4328001482e+00 +2.8739203957e+00 7.3821619087e+00 1.7770000000e+00 0.0000e+00 -1.0000e+00
       22  1    3    3    0    0 -1.5608698343e+01 +1.7174062348e+01 +3.5774098581e+02 3.5849294666e+02 0.0000000000e+00 0.0000e+00 -1.0000e+00
<mgrwt>
<rscale>  2 0.12500000E+03</rscale>
<asrwt>0</asrwt>
<pdfrwt beam="1">  1       21 0.55884958E-01 0.12500000E+03</pdfrwt>
<pdfrwt beam="2">  1       21 0.15116362E-02 0.12500000E+03</pdfrwt>
<totfact> 0.54561811E+06</totfact>
</mgrwt>
</event>
<event>
 6      0 +9.8758382e+01 1.25000000e+02 7.54677100e-03 1.12640300e-01
       21 -1    0    0  502  501 +0.0000000000e+00 +0.0000000000e+00 +2.0105272664e+03 2.0105272664e+03 0.0000000000e+00 0.0000e+00 -1.0000e+00
       21 -1    0    0  501  502 -0.0000000000e+00 -0.0000000000e+00 -1.9428982960e+00 1.9428982960e+00 0.0000000000e+00 0.0000e+00 -1.0000e+00
       25  2    1    2    0    0 +0.0000000000e+00 +0.0000000000e+00 +2.0085843681e+03 2.0124701647e+03 1.2500000000e+02 0.0000e+00 0.0000e+00
      -15  1    3    3    0    0 -1.8206911956e+01 +3.2439094676e+01 +4.1890227507e+02 4.2055446769e+02 1.7770000000e+00 0.0000e+00 -1.0000e+00
       15  1    3    3    0    0 +3.2134815730e+01 -1.7207997401e+01 +1.4709805525e+03 1.4714332146e+03 1.7770000000e+00 0.0000e+00 -1.0000e+00
       22  1    3    3    0    0 -1.3927903774e+01 -1.5231097276e+01 +1.1870153848e+02 1.2048248033e+02 0.0000000000e+00 0.0000e+00 -1.0000e+00
<mgrwt>
<rscale>  2 0.12500000E+03</rscale>
<asrwt>0</asrwt>
<pdfrwt beam="1">  1       21 0.29566432E+00 0.12500000E+03</pdfrwt>
<pdfrwt beam="2">  1       21 0.28572174E-03 0.12500000E+03</pdfrwt>
<totfact> 0.53049697E+05</totfact>
</mgrwt>
</event>
<event>
 6      0 +9.8758382e+01 1.25000000e+02 7.54677100e-03 1.12640300e-01
       21 -1    0    0  502  501 +0.0000000000e+00 +0.0000000000e+00 +3.8022699627e+02 3.8022699627e+02 0.0000000000e+00 0.0000e+00 1.0000e+00
       21 -1    0    0  501  502 -0.0000000000e+00 -0.0000000000e+00 -1.0273468318e+01 1.0273468318e+01 0.0000000000e+00 0.0000e+00 1.0000e+00
       25  2    1    2    0    0 +0.0000000000e+00 +0.0000000000e+00 +3.6995352795e+02 3.9050046459e+02 1.2500000000e+02 0.0000e+00 0.0000e+00
      -15  1    3    3    0    0 -3.1899676407e+01 -1.4143823151e+00 +1.3701380069e+02 1.4069658539e+02 1.7770000000e+00 0.0000e+00 -1.0000e+00
       15  1    3    3    0    0 -1.4054729806e+01 -2.8822986473e+01 +5.6529671433e+01 6.5015855454e+01 1.7770000000e+00 0.0000e+00 -1.0000e+00
       22  1    3    3    0    0 +4.5954406213e+01 +3.0237368788e+01 +1.7641005579e+02 1.8478802371e+02 0.0000000000e+00 0.0000e+00 -1.0000e+00
<mgrwt>
<rscale>  2 0.12500000E+03</rscale>
<asrwt>0</asrwt>
<pdfrwt beam="1">  1       21 0.55915725E-01 0.12500000E+03</pdfrwt>
<pdfrwt beam="2">  1       21 0.15108044E-02 0.12500000E+03</pdfrwt>
<totfact> 0.54542606E+06</totfact>
</mgrwt>
</event>
<event>
 6      0 +9.8758382e+01 1.25000000e+02 7.54677100e-03 1.12640300e-01
       21 -1    0    0  502  501 +0.0000000000e+00 +0.0000000000e+00 +4.6914738281e+02 4.6914738281e+02 0.0000000000e+00 0.0000e+00 1.0000e+00
       21 -1    0    0  501  502 -0.0000000000e+00 -0.0000000000e+00 -8.3262747340e+00 8.3262747340e+00 0.0000000000e+00 0.0000e+00 1.0000e+00
       25  2    1    2    0    0 +0.0000000000e+00 +0.0000000000e+00 +4.6082110808e+02 4.7747365754e+02 1.2500000000e+02 0.0000e+00 0.0000e+00
      -15  1    3    3    0    0 +1.8007590184e+01 +2.3770329112e+00 +4.2107093005e+01 4.5892140939e+01 1.7770000000e+00 0.0000e+00 -1.0000e+00
       15  1    3    3    0    0 -1.0884821096e-01 +3.3766325916e+01 +4.8193498415e+01 5.8872299362e+01 1.7770000000e+00 0.0000e+00 -1.0000e+00
       22  1    3    3    0    0 -1.7898741973e+01 -3.6143358827e+01 +3.7052051677e+02 3.7270921735e+02 0.0000000000e+00 0.0000e+00 -1.0000e+00
<mgrwt>
<rscale>  2 0.12500000E+03</rscale>
<asrwt>0</asrwt>
<pdfrwt beam="1">  1       21 0.68992244E-01 0.12500000E+03</pdfrwt>
<pdfrwt beam="2">  1       21 0.12244525E-02 0.12500000E+03</pdfrwt>
<totfact> 0.47050563E+06</totfact>
</mgrwt>
</event>
<event>
 6      0 +9.8758382e+01 1.25000000e+02 7.54677100e-03 1.12640300e-01
       21 -1    0    0  502  501 +0.0000000000e+00 +0.0000000000e+00 +1.2074220564e+02 1.2074220564e+02 0.0000000000e+00 0.0000e+00 1.0000e+00
       21 -1    0    0  501  502 -0.0000000000e+00 -0.0000000000e+00 -3.2351984788e+01 3.2351984788e+01 0.0000000000e+00 0.0000e+00 1.0000e+00
       25  2    1    2    0    0 +0.0000000000e+00 +0.0000000000e+00 +8.8390220850e+01 1.5309419043e+02 1.2500000000e+02 0.0000e+00 0.0000e+00
      -15  1    3    3    0    0 -1.0078714193e+01 +1.0420090474e+01 +3.9885057756e+00 1.5140167522e+01 1.7770000000e+00 0.0000e+00 -1.0000e+00
       15  1    3    3    0    0 +5.4458709801e+01 -3.2996210731e+00 +1.7440162084e+01 5.7305807340e+01 1.7770000000e+00 0.0000e+00 -1.0000e+00
       22  1    3    3    0    0 -4.4379995608e+01 -7.1204694005e+00 +6.6961552986e+01 8.0648215560e+01 0.0000000000e+00 0.0000e+00 -1.0000e+00
<mgrwt>
<rscale>  2 0.12500000E+03</rscale>
<asrwt>0</asrwt>
<pdfrwt beam="1">  1       21 0.17756207E-01 0.12500000E+03</pdfrwt>
<pdfrwt beam="2">  1       21 0.47576449E-02 0.12500000E+03</pdfrwt>
<totfact> 0.84109863E+06</totfact>
</mgrwt>
</event>
<event>
 6      0 +9.8758382e+01 1.25000000e+02 7.54677100e-03 1.12640300e-01
       21 -1    0    0  502  501 +0.0000000000e+00 +0.0000000000e+00 +4.0896499781e+01 4.0896499781e+01 0.0000000000e+00 0.0000e+00 -1.0000e+00
       21 -1    0    0  501  502 -0.0000000000e+00 -0.0000000000e+00 -9.5515509173e+01 9.5515509173e+01 0.0000000000e+00 0.0000e+00 -1.0000e+00
       25  2    1    2    0    0 +0.0000000000e+00 +0.0000000000e+00 -5.4619009392e+01 1.3641200895e+02 1.2500000000e+02 0.0000e+00 0.0000e+00
      -15  1    3    3    0    0 -5.2461768690e+01 +1.5006006629e+01 -1.5673213468e+01 5.6799865831e+01 1.7770000000e+00 0.0000e+00 -1.0000e+00
       15  1    3    3    0    0 -7.4444908034e+00 -1.9456746964e+00 -2.4943434137e+00 8.2816406232e+00 1.7770000000e+00 0.0000e+00 -1.0000e+00
       22  1    3    3    0    0 +5.9906259494e+01 -1.3060331932e+01 -3.6451452512e+01 7.1330502500e+01 0.0000000000e+00 0.0000e+00 -1.0000e+00
<mgrwt>
<rscale>  2 0.12500000E+03</rscale>
<asrwt>0</asrwt>
<pdfrwt beam="1">  1       21 0.60141912E-02 0.12500000E+03</pdfrwt>
<pdfrwt beam="2">  1       21 0.14046398E-01 0.12500000E+03</pdfrwt>
<totfact> 0.86959912E+06</totfact>
</mgrwt>
</event>
<event>
 6      0 +9.8758382e+01 1.25000000e+02 7.54677100e-03 1.12640300e-01
       21 -1    0    0  502  501 +0.0000000000e+00 +0.0000000000e+00 +1.9029545030e+01 1.9029545030e+01 0.0000000000e+00 0.0000e+00 -1.0000e+00
       21 -1    0    0  501  502 -0.0000000000e+00 -0.0000000000e+00 -2.0527290557e+02 2.0527290557e+02 0.0000000000e+00 0.0000e+00 -1.0000e+00
       25  2    1    2    0    0 +0.0000000000e+00 +0.0000000000e+00 -1.8624336054e+02 2.2430245060e+02 1.2500000000e+02 0.0000e+00 0.0000e+00
      -15  1    3    3    0    0 -2.2983200250e+01 -9.7753286567e+00 -9.2300960874e+01 9.5636863453e+01 1.7770000000e+00 0.0000e+00 -1.0000e+00
       15  1    3    3    0    0 -3.0108043311e+01 +6.4092083944e+00 -1.7256813330e+01 3.5334509471e+01 1.7770000000e+00 0.0000e+00 -1.0000e+00
       22  1    3    3    0    0 +5.3091243560e+01 +3.3661202623e+00 -7.6685586337e+01 9.3331077676e+01 0.0000000000e+00 0.0000e+00 -1.0000e+00
<mgrwt>
<rscale>  2 0.12500000E+03</rscale>
<asrwt>0</asrwt>
<pdfrwt beam="1">  1       21 0.27984624E-02 0.12500000E+03</pdfrwt>
<pdfrwt beam="2">  1       21 0.30187194E-01 0.12500000E+03</pdfrwt>
<totfact> 0.73406142E+06</totfact>
</mgrwt>
</event>
<event>
 6      0 +9.8758382e+01 1.25000000e+02 7.54677100e-03 1.12640300e-01
       21 -1    0    0  502  501 +0.0000000000e+00 +0.0000000000e+00 +2.9292006600e+01 2.9292006600e+01 0.0000000000e+00 0.0000e+00 -1.0000e+00
       21 -1    0    0  501  502 -0.0000000000e+00 -0.0000000000e+00 -1.3335549364e+02 1.3335549364e+02 0.0000000000e+00 0.0000e+00 -1.0000e+00
       25  2    1    2    0    0 +0.0000000000e+00 +0.0000000000e+00 -1.0406348704e+02 1.6264750024e+02 1.2500000000e+02 0.0000e+00 0.0000e+00
      -15  1    3    3    0    0 +3.6138839869e+01 +1.3412679088e+01 -8.9994596345e+01 9.7918848072e+01 1.7770000000e+00 0.0000e+00 -1.0000e+00
       15  1    3    3    0    0 +1.1335985624e+01 -1.0480482655e+01 -2.1091590022e+00 1.5682836715e+01 1.7770000000e+00 0.0000e+00 -1.0000e+00
       22  1    3    3    0    0 -4.7474825493e+01 -2.9321964333e+00 -1.1959731695e+01 4.9045815456e+01 0.0000000000e+00 0.0000e+00 -1.0000e+00
<mgrwt>
<rscale>  2 0.12500000E+03</rscale>
<asrwt>0</asrwt>
<pdfrwt beam="1">  1       21 0.43076481E-02 0.12500000E+03</pdfrwt>
<pdfrwt beam="2">  1       21 0.19611102E-01 0.12500000E+03</pdfrwt>
<totfact> 0.82548067E+06</totfact>
</mgrwt>
</event>
<event>
 6      0 +9.8758382e+01 1.25000000e+02 7.54677100e-03 1.12640300e-01
       21 -1    0    0  502  501 +0.0000000000e+00 +0.0000000000e+00 +5.5678316454e+01 5.5678316454e+01 0.0000000000e+00 0.0000e+00 -1.0000e+00
       21 -1    0    0  501  502 -0.0000000000e+00 -0.0000000000e+00 -7.0157473300e+01 7.0157473300e+01 0.0000000000e+00 0.0000e+00 -1.0000e+00
       25  2    1    2    0    0 +0.0000000000e+00 +0.0000000000e+00 -1.4479156847e+01 1.2583578975e+02 1.2500000000e+02 0.0000e+00 0.0000e+00
      -15  1    3    3    0    0 +3.2603372537e+01 -8.9148208743e-01 -2.9707306743e+01 4.4152649342e+01 1.7770000000e+00 0.0000e+00 -1.0000e+00
       15  1    3    3    0    0 +1.7683029247e+01 -1.3524088956e+01 +1.8880166729e+01 2.9243955446e+01 1.7770000000e+00 0.0000e+00 -1.0000e+00
       22  1    3    3    0    0 -5.0286401784e+01 +1.4415571043e+01 -3.6520168334e+00 5.2439184965e+01 0.0000000000e+00 0.0000e+00 -1.0000e+00
<mgrwt>
<rscale>  2 0.12500000E+03</rscale>
<asrwt>0</asrwt>
<pdfrwt beam="1">  1       21 0.81879877E-02 0.12500000E+03</pdfrwt>
<pdfrwt beam="2">  1       21 0.10317275E-01 0.12500000E+03</pdfrwt>
<totfact> 0.88841570E+06</totfact>
</mgrwt>
</event>
<event>
 6      0 +9.8758382e+01 1.25000000e+02 7.54677100e-03 1.12640300e-01
       21 -1    0    0  502  501 +0.0000000000e+00 +0.0000000000e+00 +4.8646986551e+01 4.8646986551e+01 0.0000000000e+00 0.0000e+00 -1.0000e+00
       21 -1    0    0  501  502 -0.0000000000e+00 -0.0000000000e+00 -8.0297882294e+01 8.0297882294e+01 0.0000000000e+00 0.0000e+00 -1.0000e+00
       25  2    1    2    0    0 +0.0000000000e+00 +0.0000000000e+00 -3.1650895743e+01 1.2894486884e+02 1.2500000000e+02 0.0000e+00 0.0000e+00
      -15  1    3    3    0    0 -6.4911669707e+00 +2.8383023823e+01 -8.4451980370e+00 3.0367917098e+01 1.7770000000e+00 0.0000e+00 -1.0000e+00
       15  1    3    3    0    0 +5.6363656286e+00 +2.2157400330e+01 +2.1248092927e+01 3.1262728431e+01 1.7770000000e+00 0.0000e+00 -1.0000e+00
       22  1    3    3    0    0 +8.5480134211e-01 -5.0540424153e+01 -4.4453790634e+01 6.7314223316e+01 0.0000000000e+00 0.0000e+00 -1.0000e+00
<mgrwt>
<rscale>  2 0.12500000E+03</rscale>
<asrwt>0</asrwt>
<pdfrwt beam="1">  1       21 0.71539687E-02 0.12500000E+03</pdfrwt>
<pdfrwt beam="2">  1       21 0.11808512E-01 0.12500000E+03</pdfrwt>
<totfact> 0.88289246E+06</totfact>
</mgrwt>
</event>
<event>
 6      0 +9.8758382e+01 1.25000000e+02 7.54677100e-03 1.12640300e-01
       21 -1    0    0  502  501 +0.0000000000e+00 +0.0000000000e+00 +1.2295798325e+01 1.2295798325e+01 0.0000000000e+00 0.0000e+00 1.0000e+00
       21 -1    0    0  501  502 -0.0000000000e+00 -0.0000000000e+00 -3.1768982352e+02 3.1768982352e+02 0.0000000000e+00 0.0000e+00 1.0000e+00
       25  2    1    2    0    0 +0.0000000000e+00 +0.0000000000e+00 -3.0539402520e+02 3.2998562185e+02 1.2500000000e+02 0.0000e+00 0.0000e+00
      -15  1    3    3    0    0 -8.4633113815e+00 -3.7122418155e+01 -2.2952698189e+02 2.3267035633e+02 1.7770000000e+00 0.0000e+00 -1.0000e+00
       15  1    3    3    0    0 +1.6334858518e+01 +2.4853989190e+01 -1.2528986679e+01 3.2321534891e+01 1.7770000000e+00 0.0000e+00 -1.0000e+00
       22  1    3    3    0    0 -7.8715471369e+00 +1.2268428965e+01 -6.3338056637e+01 6.4993730637e+01 0.0000000000e+00 0.0000e+00 -1.0000e+00
<mgrwt>
<rscale>  2 0.12500000E+03</rscale>
<asrwt>0</asrwt>
<pdfrwt beam="1">  1       21 0.18082056E-02 0.12500000E+03</pdfrwt>
<pdfrwt beam="2">  1       21 0.46719092E-01 0.12500000E+03</pdfrwt>
<totfact> 0.60624799E+06</totfact>
</mgrwt>
</event>
<event>
 6      0 +9.8758382e+01 1.25000000e+02 7.54677100e-03 1.12640300e-01
       21 -1    0    0  502  501 +0.0000000000e+00 +0.0000000000e+00 +6.9536373800e+00 6.9536373800e+00 0.0000000000e+00 0.0000e+00 1.0000e+00
       21 -1    0    0  501  502 -0.0000000000e+00 -0.0000000000e+00 -5.6175635664e+02 5.6175635664e+02 0.0000000000e+00 0.0000e+00 1.0000e+00
       25  2    1    2    0    0 +0.0000000000e+00 +0.0000000000e+00 -5.5480271926e+02 5.6870999402e+02 1.2500000000e+02 0.0000e+00 0.0000e+00
      -15  1    3    3    0    0 +3.6338743318e+01 +1.4943958833e+01 -2.5075677574e+02 2.5382266345e+02 1.7770000000e+00 0.0000e+00 -1.0000e+00
       15  1    3    3    0    0 -1.4502415930e+01 +1.2038231677e+01 -2.4960574929e+02 2.5032264559e+02 1.7770000000e+00 0.0000e+00 -1.0000e+00
       22  1    3    3    0    0 -2.1836327388e+01 -2.6982190511e+01 -5.4440194237e+01 6.4564684985e+01 0.0000000000e+00 0.0000e+00 -1.0000e+00
<mgrwt>
<rscale>  2 0.12500000E+03</rscale>
<asrwt>0</asrwt>
<pdfrwt beam="1">  1       21 0.10225933E-02 0.12500000E+03</pdfrwt>
<pdfrwt beam="2">  1       21 0.82611264E-01 0.12500000E+03</pdfrwt>
<totfact> 0.40549261E+06</totfact>
</mgrwt>
</event>
<event>
 6      0 +9.8758382e+01 1.25000000e+02 7.54677100e-03 1.12640300e-01
       21 -1    0    0  502  501 +0.0000000000e+00 +0.0000000000e+00 +9.3794062838e+01 9.3794062838e+01 0.0000000000e+00 0.0000e+00 1.0000e+00
       21 -1    0    0  501  502 -0.0000000000e+00 -0.0000000000e+00 -4.1647092383e+01 4.1647092383e+01 0.0000000000e+00 0.0000e+00 1.0000e+00
       25  2    1    2    0    0 +0.0000000000e+00 +0.0000000000e+00 +5.2146970455e+01 1.3544115522e+02 1.2500000000e+02 0.0000e+00 0.0000e+00
      -15  1    3    3    0    0 -2.1504303193e+01 -3.0814520662e+01 +5.1221549276e+01 6.3551353870e+01 1.7770000000e+00 0.0000e+00 -1.0000e+00
       15  1    3    3    0    0 +4.2887261722e+00 -1.8027234166e+01 -6.1871655564e+00 1.9616653397e+01 1.7770000000e+00 0.0000e+00 -1.0000e+00
       22  1    3    3    0    0 +1.7215577021e+01 +4.8841754829e+01 +7.1125867355e+00 5.2273147953e+01 0.0000000000e+00 0.0000e+00 -1.0000e+00
<mgrwt>
<rscale>  2 0.12500000E+03</rscale>
<asrwt>0</asrwt>
<pdfrwt beam="1">  1       21 0.13793245E-01 0.12500000E+03</pdfrwt>
<pdfrwt beam="2">  1       21 0.61245724E-02 0.12500000E+03</pdfrwt>
<totfact> 0.87128833E+06</totfact>
</mgrwt>
</event>
<event>
 6      0 +9.8758382e+01 1.25000000e+02 7.54677100e-03 1.12640300e-01
       21 -1    0    0  502  501 +0.0000000000e+00 +0.0000000000e+00 +1.1071017170e+03 1.1071017170e+03 0.0000000000e+00 0.0000e+00 1.0000e+00
       21 -1    0    0  501  502 -0.0000000000e+00 -0.0000000000e+00 -3.5283569161e+00 3.5283569161e+00 0.0000000000e+00 0.0000e+00 1.0000e+00
       25  2    1    2    0    0 +0.0000000000e+00 +0.0000000000e+00 +1.1035733601e+03 1.1106300739e+03 1.2500000000e+02 0.0000e+00 0.0000e+00
      -15  1    3    3    0    0 -1.5352146078e+01 +1.2673766171e+01 +5.8526318713e+02 5.8560436190e+02 1.7770000000e+00 0.0000e+00 -1.0000e+00
       15  1    3    3    0    0 -9.8530670215e+00 -2.8460964010e+01 +4.4343249237e+02 4.4445769475e+02 1.7770000000e+00 0.0000e+00 -1.0000e+00
       22  1    3    3    0    0 +2.5205213099e+01 +1.5787197839e+01 +7.4877683112e+01 8.0568019780e+01 0.0000000000e+00 0.0000e+00 -1.0000e+00
<mgrwt>
<rscale>  2 0.12500000E+03</rscale>
<asrwt>0</asrwt>
<pdfrwt beam="1">  1       21 0.16280883E+00 0.12500000E+03</pdfrwt>
<pdfrwt beam="2">  1       21 0.51887679E-03 0.12500000E+03</pdfrwt>
<totfact> 0.18135987E+06</totfact>
</mgrwt>
</event>
<event>
 6      0 +9.8758382e+01 1.25000000e+02 7.54677100e-03 1.12640300e-01
       21 -1    0    0  502  501 +0.0000000000e+00 +0.0000000000e+00 +1.5051565968e+02 1.5051565968e+02 0.0000000000e+00 0.0000e+00 -1.0000e+00
       21 -1    0    0  501  502 -0.0000000000e+00 -0.0000000000e+00 -2.5952449123e+01 2.5952449123e+01 0.0000000000e+00 0.0000e+00 -1.0000e+00
       25  2    1    2    0    0 +0.0000000000e+00 +0.0000000000e+00 +1.2456321055e+02 1.7646810880e+02 1.2500000000e+02 0.0000e+00 0.0000e+00
      -15  1    3    3    0    0 +2.7834052216e+01 +1.7543574276e+01 -3.4439229979e+00 3.3128987243e+01 1.7770000000e+00 0.0000e+00 -1.0000e+00
       15  1    3    3    0    0 -4.2715086685e+01 -2.2643384986e+01 +8.9405365530e+01 1.0165519479e+02 1.7770000000e+00 0.0000e+00 -1.0000e+00
       22  1    3    3    0    0 +1.4881034469e+01 +5.0998107106e+00 +3.8601768013e+01 4.1683926757e+01 0.0000000000e+00 0.0000e+00 -1.0000e+00
<mgrwt>
<rscale>  2 0.12500000E+03</rscale>
<asrwt>0</asrwt>
<pdfrwt beam="1">  1       21 0.22134656E-01 0.12500000E+03</pdfrwt>
<pdfrwt beam="2">  1       21 0.38165367E-02 0.12500000E+03</pdfrwt>
<totfact> 0.80350183E+06</totfact>
</mgrwt>
</event>
<event>
 6      0 +9.8758382e+01 1.25000000e+02 7.54677100e-03 1.12640300e-01
       21 -1    0    0  502  501 +0.0000000000e+00 +0.0000000000e+00 +2.0295701516e+02 2.0295701516e+02 0.0000000000e+00 0.0000e+00 1.0000e+00
       21 -1    0    0  501  502 -0.0000000000e+00 -0.0000000000e+00 -1.9246686284e+01 1.9246686284e+01 0.0000000000e+00 0.0000e+00 1.0000e+00
       25  2    1    2    0    0 +0.0000000000e+00 +0.0000000000e+00 +1.8371032887e+02 2.2220370144e+02 1.2500000000e+02 0.0000e+00 0.0000e+00
      -15  1    3    3    0    0 -1.7162888401e+01 -1.2086883446e+01 +3.6441922938e+01 4.2093098795e+01 1.7770000000e+00 0.0000e+00 -1.0000e+00
       15  1    3    3    0    0 +5.2835433156e+01 -3.4444260639e+00 +4.1140343689e+01 6.7075574358e+01 1.7770000000e+00 0.0000e+00 -1.0000e+00
       22  1    3    3    0    0 -3.5672544755e+01 +1.5531309510e+01 +1.0612806224e+02 1.1303502829e+02 0.0000000000e+00 0.0000e+00 -1.0000e+00
<mgrwt>
<rscale>  2 0.12500000E+03</rscale>
<asrwt>0</asrwt>
<pdfrwt beam="1">  1       21 0.29846619E-01 0.12500000E+03</pdfrwt>
<pdfrwt beam="2">  1       21 0.28303951E-02 0.12500000E+03</pdfrwt>
<totfact> 0.73691732E+06</totfact>
</mgrwt>
</event>
<event>
 6      0 +9.8758382e+01 1.25000000e+02 7.54677100e-03 1.12640300e-01
       21 -1    0    0  502  501 +0.0000000000e+00 +0.0000000000e+00 +3.0476604559e+02 3.0476604559e+02 0.0000000000e+00 0.0000e+00 1.0000e+00
       21 -1    0    0  501  502 -0.0000000000e+00 -0.0000000000e+00 -1.2817208664e+01 1.2817208664e+01 0.0000000000e+00 0.0000e+00 1.0000e+00
       25  2    1    2    0    0 +0.0000000000e+00 +0.0000000000e+00 +2.9194883692e+02 3.1758325425e+02 1.2500000000e+02 0.0000e+00 0.0000e+00
      -15  1    3    3    0    0 +8.3616439409e+00 -3.7211537572e+01 +1.9949102819e+02 2.0311189939e+02 1.7770000000e+00 0.0000e+00 -1.0000e+00
       15  1    3    3    0    0 -2.6968239750e+01 +1.3875210771e+00 +3.9535264451e+01 4.7910395888e+01 1.7770000000e+00 0.0000e+00 -1.0000e+00
       22  1    3    3    0    0 +1.8606595809e+01 +3.5824016495e+01 +5.2922544266e+01 6.6560958955e+01 0.0000000000e+00 0.0000e+00 -1.0000e+00
<mgrwt>
<rscale>  2 0.12500000E+03</rscale>
<asrwt>0</asrwt>
<pdfrwt beam="1">  1       21 0.44818531E-01 0.12500000E+03</pdfrwt>
<pdfrwt beam="2">  1       21 0.18848838E-02 0.12500000E+03</pdfrwt>
<totfact> 0.61971781E+06</totfact>
</mgrwt>
</event>
<event>
 6      0 +9.8758382e+01 1.25000000e+02 7.54677100e-03 1.12640300e-01
       21 -1    0    0  502  501 +0.0000000000e+00 +0.0000000000e+00 +7.5019491494e+00 7.5019491494e+00 0.0000000000e+00 0.0000e+00 -1.0000e+00
       21 -1    0    0  501  502 -0.0000000000e+00 -0.0000000000e+00 -5.2069801091e+02 5.2069801091e+02 0.0000000000e+00 0.0000e+00 -1.0000e+00
       25  2    1    2    0    0 +0.0000000000e+00 +0.0000000000e+00 -5.1319606176e+02 5.2819996006e+02 1.2500000000e+02 0.0000e+00 0.0000e+00
      -15  1    3    3    0    0 -2.9889733899e+01 +1.2165317249e+01 -2.3967941618e+02 2.4184865393e+02 1.7770000000e+00 0.0000e+00 -1.0000e+00
       15  1    3    3    0    0 -5.6643831727e+00 +2.9385690131e+01 -9.0196225155e+01 9.5047991995e+01 1.7770000000e+00 0.0000e+00 -1.0000e+00
       22  1    3    3    0    0 +3.5554117071e+01 -4.1551007380e+01 -1.8332042040e+02 1.9130331411e+02 0.0000000000e+00 0.0000e+00 -1.0000e+00
<mgrwt>
<rscale>  2 0.12500000E+03</rscale>
<asrwt>0</asrwt>
<pdfrwt beam="1">  1       21 0.11032280E-02 0.12500000E+03</pdfrwt>
<pdfrwt beam="2">  1       21 0.76573223E-01 0.12500000E+03</pdfrwt>
<totfact> 0.43292336E+06</totfact>
</mgrwt>
</event>
<event>
 6      0 +9.8758382e+01 1.25000000e+02 7.54677100e-03 1.12640300e-01
       21 -1    0    0  502  501 +0.0000000000e+00 +0.0000000000e+00 +1.1447002752e+01 1.1447002752e+01 0.0000000000e+00 0.0000e+00 -1.0000e+00
       21 -1    0    0  501  502 -0.0000000000e+00 -0.0000000000e+00 -3.4124653279e+02 3.4124653279e+02 0.0000000000e+00 0.0000e+00 -1.0000e+00
       25  2    1    2    0    0 +0.0000000000e+00 +0.0000000000e+00 -3.2979953004e+02 3.5269353554e+02 1.2500000000e+02 0.0000e+00 0.0000e+00
      -15  1    3    3    0    0 -1.3584647237e+01 -3.7623297400e+00 +3.2705481423e+00 1.4579162519e+01 1.7770000000e+00 0.0000e+00 -1.0000e+00
       15  1    3    3    0    0 -6.0669394480e+00 -2.0849965242e+01 -2.0806873317e+02 2.0920631983e+02 1.7770000000e+00 0.0000e+00 -1.0000e+00
       22  1    3    3    0    0 +1.9651586685e+01 +2.4612294982e+01 -1.2500134504e+02 1.2890805322e+02 0.0000000000e+00 0.0000e+00 -1.0000e+00
<mgrwt>
<rscale>  2 0.12500000E+03</rscale>
<asrwt>0</asrwt>
<pdfrwt beam="1">  1       21 0.16833830E-02 0.12500000E+03</pdfrwt>
<pdfrwt beam="2">  1       21 0.50183308E-01 0.12500000E+03</pdfrwt>
<totfact> 0.58253776E+06</totfact>
</mgrwt>
</event>
<event>
 6      0 +9.8758382e+01 1.25000000e+02 7.54677100e-03 1.12640300e-01
       21 -1    0    0  502  501 +0.0000000000e+00 +0.0000000000e+00 +1.0296968654e+02 1.0296968654e+02 0.0000000000e+00 0.0000e+00 1.0000e+00
       21 -1    0    0  501  502 -0.0000000000e+00 -0.0000000000e+00 -3.7935922029e+01 3.7935922029e+01 0.0000000000e+00 0.0000e+00 1.0000e+00
       25  2    1    2    0    0 +0.0000000000e+00 +0.0000000000e+00 +6.5033764514e+01 1.4090560857e+02 1.2500000000e+02 0.0000e+00 0.0000e+00
      -15  1    3    3    0    0 +1.0075245624e+01 +2.2232857454e-01 +8.1739588664e+01 8.2377655273e+01 1.7770000000e+00 0.0000e+00 -1.0000e+00
       15  1    3    3    0    0 -1.3884127859e+01 -2.2123244985e+01 +5.8863730931e+00 2.6833078323e+01 1.7770000000e+00 0.0000e+00 -1.0000e+00
       22  1    3    3    0    0 +3.8088822344e+00 +2.1900916411e+01 -2.2592197242e+01 3.1694874976e+01 0.0000000000e+00 0.0000e+00 -1.0000e+00
<mgrwt>
<rscale>  2 0.12500000E+03</rscale>
<asrwt>0</asrwt>
<pdfrwt beam="1">  1       21 0.15142601E-01 0.12500000E+03</pdfrwt>
<pdfrwt beam="2">  1       21 0.55788121E-02 0.12500000E+03</pdfrwt>
<totfact> 0.86183594E+06</totfact>
</mgrwt>
</event>
<event>
 6      0 +9.8758382e+01 1.25000000e+02 7.54677100e-03 1.12640300e-01
       21 -1    0    0  502  501 +0.0000000000e+00 +0.0000000000e+00 +3.7339628218e+01 3.7339628218e+01 0.0000000000e+00 0.0000e+00 1.0000e+00
       21 -1    0    0  501  502 -0.0000000000e+00 -0.0000000000e+00 -1.0461405714e+02 1.0461405714e+02 0.0000000000e+00 0.0000e+00 1.0000e+00
       25  2    1    2    0    0 +0.0000000000e+00 +0.0000000000e+00 -6.7274428922e+01 1.4195368536e+02 1.2500000000e+02 0.0000e+00 0.0000e+00
      -15  1    3    3    0    0 -6.1712415582e+00 +6.3886246522e+00 -3.0302743034e+01 3.1627720622e+01 1.7770000000e+00 0.0000e+00 -1.0000e+00
       15  1    3    3    0    0 +4.3153242066e+01 +1.6928381092e+01 -4.6389337348e+01 6.5604121332e+01 1.7770000000e+00 0.0000e+00 -1.0000e+00
       22  1    3    3    0    0 -3.6982000508e+01 -2.3317005744e+01 +9.4176514613e+00 4.4721843404e+01 0.0000000000e+00 0.0000e+00 -1.0000e+00
<mgrwt>
<rscale>  2 0.12500000E+03</rscale>
<asrwt>0</asrwt>
<pdfrwt beam="1">  1       21 0.54911218E-02 0.12500000E+03</pdfrwt>
<pdfrwt beam="2">  1       21 0.15384420E-01 0.12500000E+03</pdfrwt>
<totfact> 0.86001894E+06</totfact>
</mgrwt>
</event>
<event>
 6      0 +9.8758382e+01 1.25000000e+02 7.54677100e-03 1.12640300e-01
       21 -1    0    0  502  501 +0.0000000000e+00 +0.0000000000e+00 +9.7292621875e+01 9.7292621875e+01 0.0000000000e+00 0.0000e+00 1.0000e+00
       21 -1    0    0  501  502 -0.0000000000e+00 -0.0000000000e+00 -4.0149498746e+01 4.0149498746e+01 0.0000000000e+00 0.0000e+00 1.0000e+00
       25  2    1    2    0    0 +0.0000000000e+00 +0.0000000000e+00 +5.7143123129e+01 1.3744212062e+02 1.2500000000e+02 0.0000e+00 0.0000e+00
      -15  1    3    3    0    0 -1.6757711511e+01 -4.6775918398e+01 +2.1499616505e+01 5.4168244165e+01 1.7770000000e+00 0.0000e+00 -1.0000e+00
       15  1    3    3    0    0 +2.2837479978e+01 +1.1882725339e+00 -3.0906331455e+00 2.3144593874e+01 1.7770000000e+00 0.0000e+00 -1.0000e+00
       22  1    3    3    0    0 -6.0797684671e+00 +4.5587645864e+01 +3.8734139771e+01 6.0129282583e+01 0.0000000000e+00 0.0000e+00 -1.0000e+00
<mgrwt>
<rscale>  2 0.12500000E+03</rscale>
<asrwt>0</asrwt>
<pdfrwt beam="1">  1       21 0.14307738E-01 0.12500000E+03</pdfrwt>
<pdfrwt beam="2">  1       21 0.59043381E-02 0.12500000E+03</pdfrwt>
<totfact> 0.86781569E+06</totfact>
</mgrwt>
</event>
<event>
 6      0 +9.8758382e+01 1.25000000e+02 7.54677100e-03 1.12640300e-01
       21 -1    0    0  502  501 +0.0000000000e+00 +0.0000000000e+00 +5.8017163261e+01 5.8017163261e+01 0.0000000000e+00 0.0000e+00 1.0000e+00
       21 -1    0    0  501  502 -0.0000000000e+00 -0.0000000000e+00 -6.7329213985e+01 6.7329213985e+01 0.0000000000e+00 0.0000e+00 1.0000e+00
       25  2    1    2    0    0 +0.0000000000e+00 +0.0000000000e+00 -9.3120507246e+00 1.2534637725e+02 1.2500000000e+02 0.0000e+00 0.0000e+00
      -15  1    3    3    0    0 -2.1952416358e+01 -1.5575550787e+01 -1.7602037819e+01 3.2210182096e+01 1.7770000000e+00 0.0000e+00 -1.0000e+00
       15  1    3    3    0    0 +3.7992167787e+01 +6.3345087882e+00 -3.1149873537e+01 4.9568166852e+01 1.7770000000e+00 0.0000e+00 -1.0000e+00
       22  1    3    3    0    0 -1.6039751430e+01 +9.2410419991e+00 +3.9439860631e+01 4.3568028298e+01 0.0000000000e+00 0.0000e+00 -1.0000e+00
<mgrwt>
<rscale>  2 0.12500000E+03</rscale>
<asrwt>0</asrwt>
<pdfrwt beam="1">  1       21 0.85319358E-02 0.12500000E+03</pdfrwt>
<pdfrwt beam="2">  1       21 0.99013549E-02 0.12500000E+03</pdfrwt>
<totfact> 0.88932412E+06</totfact>
</mgrwt>
</event>
<event>
 6      0 +9.8758382e+01 1.25000000e+02 7.54677100e-03 1.12640300e-01
       21 -1    0    0  502  501 +0.0000000000e+00 +0.0000000000e+00 +4.8983803764e+02 4.8983803764e+02 0.0000000000e+00 0.0000e+00 1.0000e+00
       21 -1    0    0  501  502 -0.0000000000e+00 -0.0000000000e+00 -7.9745746550e+00 7.9745746550e+00 0.0000000000e+00 0.0000e+00 1.0000e+00
       25  2    1    2    0    0 +0.0000000000e+00 +0.0000000000e+00 +4.8186346298e+02 4.9781261229e+02 1.2500000000e+02 0.0000e+00 0.0000e+00
      -15  1    3    3    0    0 -2.5213558515e+01 -2.5210036133e+01 +3.1662486628e+02 3.1863102977e+02 1.7770000000e+00 0.0000e+00 -1.0000e+00
       15  1    3    3    0    0 -3.1397433615e+00 +3.4571358897e+01 +1.2035279601e+02 1.2527166512e+02 1.7770000000e+00 0.0000e+00 -1.0000e+00
       22  1    3    3    0    0 +2.8353301876e+01 -9.3613227639e+00 +4.4885800686e+01 5.3909917403e+01 0.0000000000e+00 0.0000e+00 -1.0000e+00
<mgrwt>
<rscale>  2 0.12500000E+03</rscale>
<asrwt>0</asrwt>
<pdfrwt beam="1">  1       21 0.72034985E-01 0.12500000E+03</pdfrwt>
<pdfrwt beam="2">  1       21 0.11727319E-02 0.12500000E+03</pdfrwt>
<totfact> 0.45489085E+06</totfact>
</mgrwt>
</event>
<event>
 6      0 +9.8758382e+01 1.25000000e+02 7.54677100e-03 1.12640300e-01
       21 -1    0    0  502  501 +0.0000000000e+00 +0.0000000000e+00 +4.7175280039e+00 4.7175280039e+00 0.0000000000e+00 0.0000e+00 -1.0000e+00
       21 -1    0    0  501  502 -0.0000000000e+00 -0.0000000000e+00 -8.2802900094e+02 8.2802900094e+02 0.0000000000e+00 0.0000e+00 -1.0000e+00
       25  2    1    2    0    0 +0.0000000000e+00 +0.0000000000e+00 -8.2331147293e+02 8.3274652894e+02 1.2500000000e+02 0.0000e+00 0.0000e+00
      -15  1    3    3    0    0 -1.2149382042e+01 -5.0889136291e+00 -2.4519912994e+01 2.7890650550e+01 1.7770000000e+00 0.0000e+00 -1.0000e+00
       15  1    3    3    0    0 -9.1009106991e+00 +2.9652239019e+01 -8.8012212261e+01 9.3334822497e+01 1.7770000000e+00 0.0000e+00 -1.0000e+00
       22  1    3    3    0    0 +2.1250292741e+01 -2.4563325390e+01 -7.1077934758e+02 7.1152105580e+02 0.0000000000e+00 0.0000e+00 -1.0000e+00
<mgrwt>
<rscale>  2 0.12500000E+03</rscale>
<asrwt>0</asrwt>
<pdfrwt beam="1">  1       21 0.69375414E-03 0.12500000E+03</pdfrwt>
<pdfrwt beam="2">  1       21 0.12176897E+00 0.12500000E+03</pdfrwt>
<totfact> 0.26949144E+06</totfact>
</mgrwt>
</event>
<event>
 6      0 +9.8758382e+01 1.25000000e+02 7.54677100e-03 1.12640300e-01
       21 -1    0    0  502  501 +0.0000000000e+00 +0.0000000000e+00 +6.9255985213e+00 6.9255985213e+00 0.0000000000e+00 0.0000e+00 -1.0000e+00
       21 -1    0    0  501  502 -0.0000000000e+00 -0.0000000000e+00 -5.6403067374e+02 5.6403067374e+02 0.0000000000e+00 0.0000e+00 -1.0000e+00
       25  2    1    2    0    0 +0.0000000000e+00 +0.0000000000e+00 -5.5710507522e+02 5.7095627226e+02 1.2500000000e+02 0.0000e+00 0.0000e+00
      -15  1    3    3    0    0 -4.8614845372e+01 +5.7295670398e-01 -1.5581780870e+02 1.6323626652e+02 1.7770000000e+00 0.0000e+00 -1.0000e+00
       15  1    3    3    0    0 +9.9908021129e+00 +2.3935854311e+01 -1.6658945485e+02 1.6860588793e+02 1.7770000000e+00 0.0000e+00 -1.0000e+00
       22  1    3    3    0    0 +3.8624043259e+01 -2.4508811015e+01 -2.3469781171e+02 2.3911411786e+02 0.0000000000e+00 0.0000e+00 -1.0000e+00
<mgrwt>
<rscale>  2 0.12500000E+03</rscale>
<asrwt>0</asrwt>
<pdfrwt beam="1">  1       21 0.10184704E-02 0.12500000E+03</pdfrwt>
<pdfrwt beam="2">  1       21 0.82945684E-01 0.12500000E+03</pdfrwt>
<totfact> 0.40401776E+06</totfact>
</mgrwt>
</event>
<event>
 6      0 +9.8758382e+01 1.25000000e+02 7.54677100e-03 1.12640300e-01
       21 -1    0    0  502  501 +0.0000000000e+00 +0.0000000000e+00 +6.3300014569e+00 6.3300014569e+00 0.0000000000e+00 0.0000e+00 1.0000e+00
       21 -1    0    0  501  502 -0.0000000000e+00 -0.0000000000e+00 -6.1710096381e+02 6.1710096381e+02 0.0000000000e+00 0.0000e+00 1.0000e+00
       25  2    1    2    0    0 +0.0000000000e+00 +0.0000000000e+00 -6.1077096236e+02 6.2343096527e+02 1.2500000000e+02 0.0000e+00 0.0000e+00
      -15  1    3    3    0    0 -2.0374329008e+01 +1.8593519462e+01 -7.0868886717e+01 7.6068318517e+01 1.7770000000e+00 0.0000e+00 -1.0000e+00
       15  1    3    3    0    0 -1.4251283995e+01 +1.2464889928e+01 -3.1201152134e+01 3.6539597698e+01 1.7770000000e+00 0.0000e+00 -1.0000e+00
       22  1    3    3    0    0 +3.4625613003e+01 -3.1058409390e+01 -5.0870092360e+02 5.1082304914e+02 0.0000000000e+00 0.0000e+00 -1.0000e+00
<mgrwt>
<rscale>  2 0.12500000E+03</rscale>
<asrwt>0</asrwt>
<pdfrwt beam="1">  1       21 0.93088329E-03 0.12500000E+03</pdfrwt>
<pdfrwt beam="2">  1       21 0.90750072E-01 0.12500000E+03</pdfrwt>
<totfact> 0.37069884E+06</totfact>
</mgrwt>
</event>
<event>
 6      0 +9.8758382e+01 1.25000000e+02 7.54677100e-03 1.12640300e-01
       21 -1    0    0  502  501 +0.0000000000e+00 +0.0000000000e+00 +4.4812531975e+01 4.4812531975e+01 0.0000000000e+00 0.0000e+00 1.0000e+00
       21 -1    0    0  501  502 -0.0000000000e+00 -0.0000000000e+00 -8.7168696520e+01 8.7168696520e+01 0.0000000000e+00 0.0000e+00 1.0000e+00
       25  2    1    2    0    0 +0.0000000000e+00 +0.0000000000e+00 -4.2356164545e+01 1.3198122849e+02 1.2500000000e+02 0.0000e+00 0.0000e+00
      -15  1    3    3    0    0 +4.8688031388e+01 +2.2083884816e+01 -1.3678925928e+01 5.5213160682e+01 1.7770000000e+00 0.0000e+00 -1.0000e+00
       15  1    3    3    0    0 -8.8703114106e+00 +5.8395274904e+00 +9.9504072319e+00 1.4661201823e+01 1.7770000000e+00 0.0000e+00 -1.0000e+00
       22  1    3    3    0    0 -3.9817719978e+01 -2.7923412306e+01 -3.8627645850e+01 6.2106865989e+01 0.0000000000e+00 0.0000e+00 -1.0000e+00
<mgrwt>
<rscale>  2 0.12500000E+03</rscale>
<asrwt>0</asrwt>
<pdfrwt beam="1">  1       21 0.65900782E-02 0.12500000E+03</pdfrwt>
<pdfrwt beam="2">  1       21 0.12818926E-01 0.12500000E+03</pdfrwt>
<totfact> 0.87739576E+06</totfact>
</mgrwt>
</event>
<event>
 6      0 +9.8758382e+01 1.25000000e+02 7.54677100e-03 1.12640300e-01
       21 -1    0    0  502  501 +0.0000000000e+00 +0.0000000000e+00 +4.3877267474e+01 4.3877267474e+01 0.0000000000e+00 0.0000e+00 -1.0000e+00
       21 -1    0    0  501  502 -0.0000000000e+00 -0.0000000000e+00 -8.9026738101e+01 8.9026738101e+01 0.0000000000e+00 0.0000e+00 -1.0000e+00
       25  2    1    2    0    0 +0.0000000000e+00 +0.0000000000e+00 -4.5149470627e+01 1.3290400558e+02 1.2500000000e+02 0.0000e+00 0.0000e+00
      -15  1    3    3    0    0 -1.8280796694e+01 -4.4601086419e+01 -2.5366339052e+01 5.4498195598e+01 1.7770000000e+00 0.0000e+00 -1.0000e+00
       15  1    3    3    0    0 +2.1652041857e+01 +1.8682493790e+01 +1.6973965751e+01 3.3303449268e+01 1.7770000000e+00 0.0000e+00 -1.0000e+00
       22  1    3    3    0    0 -3.3712451634e+00 +2.5918592628e+01 -3.6757097324e+01 4.5102360709e+01 0.0000000000e+00 0.0000e+00 -1.0000e+00
<mgrwt>
<rscale>  2 0.12500000E+03</rscale>
<asrwt>0</asrwt>
<pdfrwt beam="1">  1       21 0.64525395E-02 0.12500000E+03</pdfrwt>
<pdfrwt beam="2">  1       21 0.13092167E-01 0.12500000E+03</pdfrwt>
<totfact> 0.87575098E+06</totfact>
</mgrwt>
</event>
<event>
 6      0 +9.8758382e+01 1.25000000e+02 7.54677100e-03 1.12640300e-01
       21 -1    0    0  502  501 +0.0000000000e+00 +0.0000000000e+00 +7.3874841196e+00 7.3874841196e+00 0.0000000000e+00 0.0000e+00 -1.0000e+00
       21 -1    0    0  501  502 -0.0000000000e+00 -0.0000000000e+00 -5.2876594206e+02 5.2876594206e+02 0.0000000000e+00 0.0000e+00 -1.0000e+00
       25  2    1    2    0    0 +0.0000000000e+00 +0.0000000000e+00 -5.2137845794e+02 5.3615342618e+02 1.2500000000e+02 0.0000e+00 0.0000e+00
      -15  1    3    3    0    0 -1.2609439686e+01 -2.8713143213e+01 -6.8086625118e+01 7.4982590055e+01 1.7770000000e+00 0.0000e+00 -1.0000e+00
       15  1    3    3    0    0 -3.4753499876e+00 +3.3069576656e+01 -6.9997309573e+01 7.7514231172e+01 1.7770000000e+00 0.0000e+00 -1.0000e+00
       22  1    3    3    0    0 +1.6084789674e+01 -4.3564334433e+00 -3.8329452324e+02 3.8365660494e+02 0.0000000000e+00 0.0000e+00 -1.0000e+00
<mgrwt>
<rscale>  2 0.12500000E+03</rscale>
<asrwt>0</asrwt>
<pdfrwt beam="1">  1       21 0.10863946E-02 0.12500000E+03</pdfrwt>
<pdfrwt beam="2">  1       21 0.77759705E-01 0.12500000E+03</pdfrwt>
<totfact> 0.42739389E+06</totfact>
</mgrwt>
</event>
<event>
 6      0 +9.8758382e+01 1.25000000e+02 7.54677100e-03 1.12640300e-01
       21 -1    0    0  502  501 +0.0000000000e+00 +0.0000000000e+00 +1.0184341699e+02 1.0184341699e+02 0.0000000000e+00 0.0000e+00 1.0000e+00
       21 -1    0    0  501  502 -0.0000000000e+00 -0.0000000000e+00 -3.8355449133e+01 3.8355449133e+01 0.0000000000e+00 0.0000e+00 1.0000e+00
       25  2    1    2    0    0 +0.0000000000e+00 +0.0000000000e+00 +6.3487967861e+01 1.4019886613e+02 1.2500000000e+02 0.0000e+00 0.0000e+00
      -15  1    3    3    0    0 +3.8178363842e+01 +1.9003327303e+01 +4.6029827701e+01 6.2774331389e+01 1.7770000000e+00 0.0000e+00 -1.0000e+00
       15  1    3    3    0    0 -5.1994852658e+01 -2.7248077169e-01 +9.9554420915e+00 5.2969873559e+01 1.7770000000e+00 0.0000e+00 -1.0000e+00
       22  1    3    3    0    0 +1.3816488816e+01 -1.8730846531e+01 +7.5026980664e+00 2.4454661177e+01 0.0000000000e+00 0.0000e+00 -1.0000e+00
<mgrwt>
<rscale>  2 0.12500000E+03</rscale>
<asrwt>0</asrwt>
<pdfrwt beam="1">  1       21 0.14976973E-01 0.12500000E+03</pdfrwt>
<pdfrwt beam="2">  1       21 0.56405072E-02 0.12500000E+03</pdfrwt>
<totfact> 0.86305920E+06</totfact>
</mgrwt>
</event>
<event>
 6      0 +9.8758382e+01 1.25000000e+02 7.54677100e-03 1.12640300e-01
       21 -1    0    0  502  501 +0.0000000000e+00 +0.0000000000e+00 +2.2734890531e+02 2.2734890531e+02 0.0000000000e+00 0.0000e+00 1.0000e+00
       21 -1    0    0  501  502 -0.0000000000e+00 -0.0000000000e+00 -1.7181740966e+01 1.7181740966e+01 0.0000000000e+00 0.0000e+00 1.0000e+00
       25  2    1    2    0    0 +0.0000000000e+00 +0.0000000000e+00 +2.1016716435e+02 2.4453064628e+02 1.2500000000e+02 0.0000e+00 0.0000e+00
      -15  1    3    3    0    0 +2.7163721116e+00 -3.0854630146e+01 +4.7883928704e+01 5.7056246249e+01 1.7770000000e+00 0.0000e+00 -1.0000e+00
       15  1    3    3    0    0 +4.2101129669e+01 +1.8438491037e+01 +6.4784719364e+01 7.9452505708e+01 1.7770000000e+00 0.0000e+00 -1.0000e+00
       22  1    3    3    0    0 -4.4817501781e+01 +1.2416139110e+01 +9.7498516287e+01 1.0802189433e+02 0.0000000000e+00 0.0000e+00 -1.0000e+00
<mgrwt>
<rscale>  2 0.12500000E+03</rscale>
<asrwt>0</asrwt>
<pdfrwt beam="1">  1       21 0.33433661E-01 0.12500000E+03</pdfrwt>
<pdfrwt beam="2">  1       21 0.25267267E-02 0.12500000E+03</pdfrwt>
<totfact> 0.70711563E+06</totfact>
</mgrwt>
</event>
<event>
 6      0 +9.8758382e+01 1.25000000e+02 7.54677100e-03 1.12640300e-01
       21 -1    0    0  502  501 +0.0000000000e+00 +0.0000000000e+00 +1.9846393397e+02 1.9846393397e+02 0.0000000000e+00 0.0000e+00 -1.0000e+00
       21 -1    0    0  501  502 -0.0000000000e+00 -0.0000000000e+00 -1.9682417465e+01 1.9682417465e+01 0.0000000000e+00 0.0000e+00 -1.0000e+00
       25  2    1    2    0    0 +0.0000000000e+00 +0.0000000000e+00 +1.7878151650e+02 2.1814635143e+02 1.2500000000e+02 0.0000e+00 0.0000e+00
      -15  1    3    3    0    0 -1.5370517251e+01 +2.1058522815e+01 +2.0065248392e+01 3.2946716160e+01 1.7770000000e+00 0.0000e+00 -1.0000e+00
       15  1    3    3    0    0 -1.4995743847e+01 -5.0495656184e+01 +9.6789389988e+01 1.1020901674e+02 1.7770000000e+00 0.0000e+00 -1.0000e+00
       22  1    3    3    0    0 +3.0366261098e+01 +2.9437133369e+01 +6.1926878119e+01 7.4990618531e+01 0.0000000000e+00 0.0000e+00 -1.0000e+00
<mgrwt>
<rscale>  2 0.12500000E+03</rscale>
<asrwt>0</asrwt>
<pdfrwt beam="1">  1       21 0.29185872E-01 0.12500000E+03</pdfrwt>
<pdfrwt beam="2">  1       21 0.28944733E-02 0.12500000E+03</pdfrwt>
<totfact> 0.74248167E+06</totfact>
</mgrwt>
</event>
<event>
 6      0 +9.8758382e+01 1.25000000e+02 7.54677100e-03 1.12640300e-01
       21 -1    0    0  502  501 +0.0000000000e+00 +0.0000000000e+00 +1.8460207871e+02 1.8460207871e+02 0.0000000000e+00 0.0000e+00 1.0000e+00
       21 -1    0    0  501  502 -0.0000000000e+00 -0.0000000000e+00 -2.1160379273e+01 2.1160379273e+01 0.0000000000e+00 0.0000e+00 1.0000e+00
       25  2    1    2    0    0 +0.0000000000e+00 +0.0000000000e+00 +1.6344169943e+02 2.0576245798e+02 1.2500000000e+02 0.0000e+00 0.0000e+00
      -15  1    3    3    0    0 +1.1346023363e+01 -5.8825944647e+00 -1.1639187943e+01 1.7377157097e+01 1.7770000000e+00 0.0000e+00 -1.0000e+00
       15  1    3    3    0    0 +4.4309639116e+00 -2.6865015340e+01 +3.9443233136e+01 4.7961326709e+01 1.7770000000e+00 0.0000e+00 -1.0000e+00
       22  1    3    3    0    0 -1.5776987275e+01 +3.2747609805e+01 +1.3563765423e+02 1.4042397417e+02 0.0000000000e+00 0.0000e+00 -1.0000e+00
<mgrwt>
<rscale>  2 0.12500000E+03</rscale>
<asrwt>0</asrwt>
<pdfrwt beam="1">  1       21 0.27147364E-01 0.12500000E+03</pdfrwt>
<pdfrwt beam="2">  1       21 0.31118206E-02 0.12500000E+03</pdfrwt>
<totfact> 0.75986422E+06</totfact>
</mgrwt>
</event>
<event>
 6      0 +9.8758382e+01 1.25000000e+02 7.54677100e-03 1.12640300e-01
       21 -1    0    0  502  501 +0.0000000000e+00 +0.0000000000e+00 +2.0588431848e+00 2.0588431848e+00 0.0000000000e+00 0.0000e+00 1.0000e+00
       21 -1    0    0  501  502 -0.0000000000e+00 -0.0000000000e+00 -1.8973033152e+03 1.8973033152e+03 0.0000000000e+00 0.0000e+00 1.0000e+00
       25  2    1    2    0    0 +0.0000000000e+00 +0.0000000000e+00 -1.8952444720e+03 1.8993621584e+03 1.2500000000e+02 0.0000e+00 0.0000e+00
      -15  1    3    3    0    0 +1.0040057626e+01 +3.6124604921e+01 -5.1283449326e+02 5.1420634481e+02 1.7770000000e+00 0.0000e+00 -1.0000e+00
       15  1    3    3    0    0 -2.9049932172e+01 -2.2984426709e+01 -1.2622004244e+03 1.2627451253e+03 1.7770000000e+00 0.0000e+00 -1.0000e+00
       22  1    3    3    0    0 +1.9009874546e+01 -1.3140178213e+01 -1.2020954734e+02 1.2241068126e+02 0.0000000000e+00 0.0000e+00 -1.0000e+00
<mgrwt>
<rscale>  2 0.12500000E+03</rscale>
<asrwt>0</asrwt>
<pdfrwt beam="1">  1       21 0.30277125E-03 0.12500000E+03</pdfrwt>
<pdfrwt beam="2">  1       21 0.27901501E+00 0.12500000E+03</pdfrwt>
<totfact> 0.61700528E+05</totfact>
</mgrwt>
</event>
<event>
 6      0 +9.8758382e+01 1.25000000e+02 7.54677100e-03 1.12640300e-01
       21 -1    0    0  502  501 +0.0000000000e+00 +0.0000000000e+00 +6.9979162720e+01 6.9979162720e+01 0.0000000000e+00 0.0000e+00 1.0000e+00
       21 -1    0    0  501  502 -0.0000000000e+00 -0.0000000000e+00 -5.5820187727e+01 5.5820187727e+01 0.0000000000e+00 0.0000e+00 1.0000e+00
       25  2    1    2    0    0 +0.0000000000e+00 +0.0000000000e+00 +1.4158974993e+01 1.2579935045e+02 1.2500000000e+02 0.0000e+00 0.0000e+00
      -15  1    3    3    0    0 +1.0394460462e+01 +1.3720181577e+01 -1.5261124676e-01 1.7305178705e+01 1.7770000000e+00 0.0000e+00 -1.0000e+00
       15  1    3    3    0    0 +3.7959809894e+01 -1.0904406116e+01 -2.4426656085e+01 4.6472276644e+01 1.7770000000e+00 0.0000e+00 -1.0000e+00
       22  1    3    3    0    0 -4.8354270357e+01 -2.8157754614e+00 +3.8738242324e+01 6.2021895098e+01 0.0000000000e+00 0.0000e+00 -1.0000e+00
<mgrwt>
<rscale>  2 0.12500000E+03</rscale>
<asrwt>0</asrwt>
<pdfrwt beam="1">  1       21 0.10291053E-01 0.12500000E+03</pdfrwt>
<pdfrwt beam="2">  1       21 0.82088511E-02 0.12500000E+03</pdfrwt>
<totfact> 0.88848217E+06</totfact>
</mgrwt>
</event>
<event>
 6      0 +9.8758382e+01 1.25000000e+02 7.54677100e-03 1.12640300e-01
       21 -1    0    0  502  501 +0.0000000000e+00 +0.0000000000e+00 +1.0813834040e+03 1.0813834040e+03 0.0000000000e+00 0.0000e+00 -1.0000e+00
       21 -1    0    0  501  502 -0.0000000000e+00 -0.0000000000e+00 -3.6122710831e+00 3.6122710831e+00 0.0000000000e+00 0.0000e+00 -1.0000e+00
       25  2    1    2    0    0 +0.0000000000e+00 +0.0000000000e+00 +1.0777711329e+03 1.0849956751e+03 1.2500000000e+02 0.0000e+00 0.0000e+00
      -15  1    3    3    0    0 +1.7069655317e+01 +3.8096215657e+01 +4.2214209205e+02 4.2420490142e+02 1.7770000000e+00 0.0000e+00 -1.0000e+00
       15  1    3    3    0    0 -3.6343026521e+01 -2.0382982899e+01 +5.6275181494e+02 5.6429517499e+02 1.7770000000e+00 0.0000e+00 -1.0000e+00
       22  1    3    3    0    0 +1.9273371204e+01 -1.7713232759e+01 +9.2877223382e+01 9.6495596145e+01 0.0000000000e+00 0.0000e+00 -1.0000e+00
<mgrwt>
<rscale>  2 0.12500000E+03</rscale>
<asrwt>0</asrwt>
<pdfrwt beam="1">  1       21 0.15902675E+00 0.12500000E+03</pdfrwt>
<pdfrwt beam="2">  1       21 0.53121709E-03 0.12500000E+03</pdfrwt>
<totfact> 0.18796956E+06</totfact>
</mgrwt>
</event>
<event>
 6      0 +9.8758382e+01 1.25000000e+02 7.54677100e-03 1.12640300e-01
       21 -1    0    0  502  501 +0.0000000000e+00 +0.0000000000e+00 +1.1790528131e+01 1.1790528131e+01 0.0000000000e+00 0.0000e+00 -1.0000e+00
       21 -1    0    0  501  502 -0.0000000000e+00 -0.0000000000e+00 -3.3130407362e+02 3.3130407362e+02 0.0000000000e+00 0.0000e+00 -1.0000e+00
       25  2    1    2    0    0 +0.0000000000e+00 +0.0000000000e+00 -3.1951354549e+02 3.4309460175e+02 1.2500000000e+02 0.0000e+00 0.0000e+00
      -15  1    3    3    0    0 -1.4157375897e+01 +2.2730999013e+01 -6.5424722972e+01 7.0715498396e+01 1.7770000000e+00 0.0000e+00 -1.0000e+00
       15  1    3    3    0    0 -2.3619595601e+01 +2.6755347522e+01 -8.5811809534e+01 9.2954603447e+01 1.7770000000e+00 0.0000e+00 -1.0000e+00
       22  1    3    3    0    0 +3.7776971498e+01 -4.9486346536e+01 -1.6827701300e+02 1.7942449992e+02 0.0000000000e+00 0.0000e+00 -1.0000e+00
<mgrwt>
<rscale>  2 0.12500000E+03</rscale>
<asrwt>0</asrwt>
<pdfrwt beam="1">  1       21 0.17339012E-02 0.12500000E+03</pdfrwt>
<pdfrwt beam="2">  1       21 0.48721186E-01 0.12500000E+03</pdfrwt>
<totfact> 0.59241654E+06</totfact>
</mgrwt>
</event>
<event>
 6      0 +9.8758382e+01 1.25000000e+02 7.54677100e-03 1.12640300e-01
       21 -1    0    0  502  501 +0.0000000000e+00 +0.0000000000e+00 +1.7590410314e+02 1.7590410314e+02 0.0000000000e+00 0.0000e+00 1.0000e+00
       21 -1    0    0  501  502 -0.0000000000e+00 -0.0000000000e+00 -2.2206702006e+01 2.2206702006e+01 0.0000000000e+00 0.0000e+00 1.0000e+00
       25  2    1    2    0    0 +0.0000000000e+00 +0.0000000000e+00 +1.5369740113e+02 1.9811080514e+02 1.2500000000e+02 0.0000e+00 0.0000e+00
      -15  1    3    3    0    0 +1.2280544783e+00 +3.8413882018e+01 +9.8025264548e+01 1.0530548261e+02 1.7770000000e+00 0.0000e+00 -1.0000e+00
       15  1    3    3    0    0 -2.3655906672e+00 -1.1077003980e+01 -1.3916492630e+01 1.8031154497e+01 1.7770000000e+00 0.0000e+00 -1.0000e+00
       22  1    3    3    0    0 +1.1375361889e+00 -2.7336878038e+01 +6.9588629216e+01 7.4774168037e+01 0.0000000000e+00 0.0000e+00 -1.0000e+00
<mgrwt>
<rscale>  2 0.12500000E+03</rscale>
<asrwt>0</asrwt>
<pdfrwt beam="1">  1       21 0.25868250E-01 0.12500000E+03</pdfrwt>
<pdfrwt beam="2">  1       21 0.32656916E-02 0.12500000E+03</pdfrwt>
<totfact> 0.77095486E+06</totfact>
</mgrwt>
</event>
<event>
 6      0 +9.8758382e+01 1.25000000e+02 7.54677100e-03 1.12640300e-01
       21 -1    0    0  502  501 +0.0000000000e+00 +0.0000000000e+00 +7.4016432652e+00 7.4016432652e+00 0.0000000000e+00 0.0000e+00 1.0000e+00
       21 -1    0    0  501  502 -0.0000000000e+00 -0.0000000000e+00 -5.2775442697e+02 5.2775442697e+02 0.0000000000e+00 0.0000e+00 1.0000e+00
       25  2    1    2    0    0 +0.0000000000e+00 +0.0000000000e+00 -5.2035278370e+02 5.3515607023e+02 1.2500000000e+02 0.0000e+00 0.0000e+00
      -15  1    3    3    0    0 +4.4328476237e+00 -3.3883158587e+01 -8.4546422595e+01 9.1208409023e+01 1.7770000000e+00 0.0000e+00 -1.0000e+00
       15  1    3    3    0    0 -7.5107291802e+00 +8.6905126540e+00 -5.4390851552e+00 1.2832670779e+01 1.7770000000e+00 0.0000e+00 -1.0000e+00
       22  1    3    3    0    0 +3.0778815565e+00 +2.5192645933e+01 -4.3036727595e+02 4.3111499043e+02 0.0000000000e+00 0.0000e+00 -1.0000e+00
<mgrwt>
<rscale>  2 0.12500000E+03</rscale>
<asrwt>0</asrwt>
<pdfrwt beam="1">  1       21 0.10884769E-02 0.12500000E+03</pdfrwt>
<pdfrwt beam="2">  1       21 0.77610948E-01 0.12500000E+03</pdfrwt>
<totfact> 0.42808292E+06</totfact>
</mgrwt>
</event>
<event>
 6      0 +9.8758382e+01 1.25000000e+02 7.54677100e-03 1.12640300e-01
       21 -1    0    0  502  501 +0.0000000000e+00 +0.0000000000e+00 +6.9654410286e+01 6.9654410286e+01 0.0000000000e+00 0.0000e+00 1.0000e+00
       21 -1    0    0  501  502 -0.0000000000e+00 -0.0000000000e+00 -5.6080440334e+01 5.6080440334e+01 0.0000000000e+00 0.0000e+00 1.0000e+00
       25  2    1    2    0    0 +0.0000000000e+00 +0.0000000000e+00 +1.3573969952e+01 1.2573485062e+02 1.2500000000e+02 0.0000e+00 0.0000e+00
      -15  1    3    3    0    0 +4.9939412030e+01 -7.2626244768e+00 -9.3577617833e+00 5.1355778865e+01 1.7770000000e+00 0.0000e+00 -1.0000e+00
       15  1    3    3    0    0 -1.3565380168e+01 +2.5293602483e+01 +1.6845928331e+01 3.3327599614e+01 1.7770000000e+00 0.0000e+00 -1.0000e+00
       22  1    3    3    0    0 -3.6374031863e+01 -1.8030978007e+01 +6.0858034042e+00 4.1051472141e+01 0.0000000000e+00 0.0000e+00 -1.0000e+00
<mgrwt>
<rscale>  2 0.12500000E+03</rscale>
<asrwt>0</asrwt>
<pdfrwt beam="1">  1       21 0.10243296E-01 0.12500000E+03</pdfrwt>
<pdfrwt beam="2">  1       21 0.82471235E-02 0.12500000E+03</pdfrwt>
<totfact> 0.88860016E+06</totfact>
</mgrwt>
</event>
<event>
 6      0 +9.8758382e+01 1.25000000e+02 7.54677100e-03 1.12640300e-01
       21 -1    0    0  502  501 +0.0000000000e+00 +0.0000000000e+00 +3.1723194526e+02 3.1723194526e+02 0.0000000000e+00 0.0000e+00 -1.0000e+00
       21 -1    0    0  501  502 -0.0000000000e+00 -0.0000000000e+00 -1.2313545525e+01 1.2313545525e+01 0.0000000000e+00 0.0000e+00 -1.0000e+00
       25  2    1    2    0    0 +0.0000000000e+00 +0.0000000000e+00 +3.0491839974e+02 3.2954549079e+02 1.2500000000e+02 0.0000e+00 0.0000e+00
      -15  1    3    3    0    0 -2.7734753941e+01 +9.3054346105e+00 +3.0488398977e+01 4.2290754197e+01 1.7770000000e+00 0.0000e+00 -1.0000e+00
       15  1    3    3    0    0 -4.9842072928e+00 +2.5835933366e+01 +1.7341658057e+02 1.7541039285e+02 1.7770000000e+00 0.0000e+00 -1.0000e+00
       22  1    3    3    0    0 +3.2718961234e+01 -3.5141367976e+01 +1.0101342020e+02 1.1184434374e+02 0.0000000000e+00 0.0000e+00 -1.0000e+00
<mgrwt>
<rscale>  2 0.12500000E+03</rscale>
<asrwt>0</asrwt>
<pdfrwt beam="1">  1       21 0.46651752E-01 0.12500000E+03</pdfrwt>
<pdfrwt beam="2">  1       21 0.18108157E-02 0.12500000E+03</pdfrwt>
<totfact> 0.60671951E+06</totfact>
</mgrwt>
</event>
<event>
 6      0 +9.8758382e+01 1.25000000e+02 7.54677100e-03 1.12640300e-01
       21 -1    0    0  502  501 +0.0000000000e+00 +0.0000000000e+00 +3.8288718099e+01 3.8288718099e+01 0.0000000000e+00 0.0000e+00 1.0000e+00
       21 -1    0    0  501  502 -0.0000000000e+00 -0.0000000000e+00 -1.0202091357e+02 1.0202091357e+02 0.0000000000e+00 0.0000e+00 1.0000e+00
       25  2    1    2    0    0 +0.0000000000e+00 +0.0000000000e+00 -6.3732195474e+01 1.4030963167e+02 1.2500000000e+02 0.0000e+00 0.0000e+00
      -15  1    3    3    0    0 +1.1286426074e+01 +1.1672263927e+01 -2.3211269781e+01 2.8382141085e+01 1.7770000000e+00 0.0000e+00 -1.0000e+00
       15  1    3    3    0    0 +3.5162023325e+01 +1.6210946480e+01 -4.2751921273e+01 5.7706560907e+01 1.7770000000e+00 0.0000e+00 -1.0000e+00
       22  1    3    3    0    0 -4.6448449399e+01 -2.7883210407e+01 +2.2309955801e+00 5.4220929681e+01 0.0000000000e+00 0.0000e+00 -1.0000e+00
<mgrwt>
<rscale>  2 0.12500000E+03</rscale>
<asrwt>0</asrwt>
<pdfrwt beam="1">  1       21 0.56306939E-02 0.12500000E+03</pdfrwt>
<pdfrwt beam="2">  1       21 0.15003075E-01 0.12500000E+03</pdfrwt>
<totfact> 0.86286760E+06</totfact>
</mgrwt>
</event>
<event>
 6      0 +9.8758382e+01 1.25000000e+02 7.54677100e-03 1.12640300e-01
       21 -1    0    0  502  501 +0.0000000000e+00 +0.0000000000e+00 +5.6001499336e+02 5.6001499336e+02 0.0000000000e+00 0.0000e+00 1.0000e+00
       21 -1    0    0  501  502 -0.0000000000e+00 -0.0000000000e+00 -6.9752596740e+00 6.9752596740e+00 0.0000000000e+00 0.0000e+00 1.0000e+00
       25  2    1    2    0    0 +0.0000000000e+00 +0.0000000000e+00 +5.5303973368e+02 5.6699025303e+02 1.2500000000e+02 0.0000e+00 0.0000e+00
      -15  1    3    3    0    0 +6.7706829824e+00 +1.7971987662e+01 +4.0691157645e+01 4.5030684295e+01 1.7770000000e+00 0.0000e+00 -1.0000e+00
       15  1    3    3    0    0 -3.8069108602e+01 -4.4305807885e+01 +3.2284308285e+02 3.2809004178e+02 1.7770000000e+00 0.0000e+00 -1.0000e+00
       22  1    3    3    0    0 +3.1298425620e+01 +2.6333820224e+01 +1.8950549315e+02 1.9386952692e+02 0.0000000000e+00 0.0000e+00 -1.0000e+00
<mgrwt>
<rscale>  2 0.12500000E+03</rscale>
<asrwt>0</asrwt>
<pdfrwt beam="1">  1       21 0.82355115E-01 0.12500000E+03</pdfrwt>
<pdfrwt beam="2">  1       21 0.10257739E-02 0.12500000E+03</pdfrwt>
<totfact> 0.40662483E+06</totfact>
</mgrwt>
</event>
<event>
 6      0 +9.8758382e+01 1.25000000e+02 7.54677100e-03 1.12640300e-01
       21 -1    0    0  502  501 +0.0000000000e+00 +0.0000000000e+00 +3.8474067990e+01 3.8474067990e+01 0.0000000000e+00 0.0000e+00 -1.0000e+00
       21 -1    0    0  501  502 -0.0000000000e+00 -0.0000000000e+00 -1.0152942499e+02 1.0152942499e+02 0.0000000000e+00 0.0000e+00 -1.0000e+00
       25  2    1    2    0    0 +0.0000000000e+00 +0.0000000000e+00 -6.3055356998e+01 1.4000349298e+02 1.2500000000e+02 0.0000e+00 0.0000e+00
      -15  1    3    3    0    0 -6.0075770133e-02 +4.7570140946e+01 -2.8261729784e+01 5.5360681156e+01 1.7770000000e+00 0.0000e+00 -1.0000e+00
       15  1    3    3    0    0 -1.9699598588e+01 -1.9857614116e+00 +5.5540852745e+00 2.0640325220e+01 1.7770000000e+00 0.0000e+00 -1.0000e+00
       22  1    3    3    0    0 +1.9759674358e+01 -4.5584379534e+01 -4.0347712488e+01 6.4002486602e+01 0.0000000000e+00 0.0000e+00 -1.0000e+00
<mgrwt>
<rscale>  2 0.12500000E+03</rscale>
<asrwt>0</asrwt>
<pdfrwt beam="1">  1       21 0.56579512E-02 0.12500000E+03</pdfrwt>
<pdfrwt beam="2">  1       21 0.14930798E-01 0.12500000E+03</pdfrwt>
<totfact> 0.86339706E+06</totfact>
</mgrwt>
</event>
<event>
 6      0 +9.8758382e+01 1.25000000e+02 7.54677100e-03 1.12640300e-01
       21 -1    0    0  502  501 +0.0000000000e+00 +0.0000000000e+00 +8.9853683296e+01 8.9853683296e+01 0.0000000000e+00 0.0000e+00 1.0000e+00
       21 -1    0    0  501  502 -0.0000000000e+00 -0.0000000000e+00 -4.3473454362e+01 4.3473454362e+01 0.0000000000e+00 0.0000e+00 1.0000e+00
       25  2    1    2    0    0 +0.0000000000e+00 +0.0000000000e+00 +4.6380228935e+01 1.3332713766e+02 1.2500000000e+02 0.0000e+00 0.0000e+00
      -15  1    3    3    0    0 +1.1893425760e+01 +3.6911355364e+00 -9.0477447626e+00 1.5495078966e+01 1.7770000000e+00 0.0000e+00 -1.0000e+00
       15  1    3    3    0    0 -2.0852595620e+01 +3.8895722465e+01 -3.8033005688e+00 4.4332051547e+01 1.7770000000e+00 0.0000e+00 -1.0000e+00
       22  1    3    3    0    0 +8.9591698598e+00 -4.2586858002e+01 +5.9231274266e+01 7.3500007144e+01 0.0000000000e+00 0.0000e+00 -1.0000e+00
<mgrwt>
<rscale>  2 0.12500000E+03</rscale>
<asrwt>0</asrwt>
<pdfrwt beam="1">  1       21 0.13213777E-01 0.12500000E+03</pdfrwt>
<pdfrwt beam="2">  1       21 0.63931550E-02 0.12500000E+03</pdfrwt>
<totfact> 0.87500108E+06</totfact>
</mgrwt>
</event>
<event>
 6      0 +9.8758382e+01 1.25000000e+02 7.54677100e-03 1.12640300e-01
       21 -1    0    0  502  501 +0.0000000000e+00 +0.0000000000e+00 +1.5163851878e+01 1.5163851878e+01 0.0000000000e+00 0.0000e+00 1.0000e+00
       21 -1    0    0  501  502 -0.0000000000e+00 -0.0000000000e+00 -2.5760275367e+02 2.5760275367e+02 0.0000000000e+00 0.0000e+00 1.0000e+00
       25  2    1    2    0    0 +0.0000000000e+00 +0.0000000000e+00 -2.4243890179e+02 2.7276660555e+02 1.2500000000e+02 0.0000e+00 0.0000e+00
      -15  1    3    3    0    0 -1.2123932299e+01 +1.2570918923e+01 -2.0058169791e+01 2.6655311690e+01 1.7770000000e+00 0.0000e+00 -1.0000e+00
       15  1    3    3    0    0 -1.1534465648e+01 -5.1720965375e+01 -7.5393235461e+01 9.2170493322e+01 1.7770000000e+00 0.0000e+00 -1.0000e+00
       22  1    3    3    0    0 +2.3658397947e+01 +3.9150046451e+01 -1.4698749652e+02 1.5394080052e+02 0.0000000000e+00 0.0000e+00 -1.0000e+00
<mgrwt>
<rscale>  2 0.12500000E+03</rscale>
<asrwt>0</asrwt>
<pdfrwt beam="1">  1       21 0.22299783E-02 0.12500000E+03</pdfrwt>
<pdfrwt beam="2">  1       21 0.37882756E-01 0.12500000E+03</pdfrwt>
<totfact> 0.67161585E+06</totfact>
</mgrwt>
</event>
<event>
 6      0 +9.8758382e+01 1.25000000e+02 7.54677100e-03 1.12640300e-01
       21 -1    0    0  502  501 +0.0000000000e+00 +0.0000000000e+00 +4.9799092199e+01 4.9799092199e+01 0.0000000000e+00 0.0000e+00 -1.0000e+00
       21 -1    0    0  501  502 -0.0000000000e+00 -0.0000000000e+00 -7.8440184901e+01 7.8440184901e+01 0.0000000000e+00 0.0000e+00 -1.0000e+00
       25  2    1    2    0    0 +0.0000000000e+00 +0.0000000000e+00 -2.8641092702e+01 1.2823927710e+02 1.2500000000e+02 0.0000e+00 0.0000e+00
      -15  1    3    3    0    0 -1.9148024703e+01 +1.7283542312e+01 -4.3437136378e+01 5.0550076465e+01 1.7770000000e+00 0.0000e+00 -1.0000e+00
       15  1    3    3    0    0 -1.9466554599e+01 +1.1342577371e+01 -8.6613601485e+00 2.4202844832e+01 1.7770000000e+00 0.0000e+00 -1.0000e+00
       22  1    3    3    0    0 +3.8614579302e+01 -2.8626119683e+01 +2.3457403825e+01 5.3486355802e+01 0.0000000000e+00 0.0000e+00 -1.0000e+00
<mgrwt>
<rscale>  2 0.12500000E+03</rscale>
<asrwt>0</asrwt>
<pdfrwt beam="1">  1       21 0.73233960E-02 0.12500000E+03</pdfrwt>
<pdfrwt beam="2">  1       21 0.11535321E-01 0.12500000E+03</pdfrwt>
<totfact> 0.88415349E+06</totfact>
</mgrwt>
</event>
<event>
 6      0 +9.8758382e+01 1.25000000e+02 7.54677100e-03 1.12640300e-01
       21 -1    0    0  502  501 +0.0000000000e+00 +0.0000000000e+00 +1.9436595825e+02 1.9436595825e+02 0.0000000000e+00 0.0000e+00 -1.0000e+00
       21 -1    0    0  501  502 -0.0000000000e+00 -0.0000000000e+00 -2.0097397894e+01 2.0097397894e+01 0.0000000000e+00 0.0000e+00 -1.0000e+00
       25  2    1    2    0    0 +0.0000000000e+00 +0.0000000000e+00 +1.7426856035e+02 2.1446335614e+02 1.2500000000e+02 0.0000e+00 0.0000e+00
      -15  1    3    3    0    0 +2.1540204844e+01 +4.0384098526e+01 +3.9606872033e+01 6.0553429958e+01 1.7770000000e+00 0.0000e+00 -1.0000e+00
       15  1    3    3    0    0 -4.0655098376e+01 -3.3729637558e+01 +1.0973378778e+02 1.2179978400e+02 1.7770000000e+00 0.0000e+00 -1.0000e+00
       22  1    3    3    0    0 +1.9114893531e+01 -6.6544609673e+00 +2.4927900535e+01 3.2110142176e+01 0.0000000000e+00 0.0000e+00 -1.0000e+00
<mgrwt>
<rscale>  2 0.12500000E+03</rscale>
<asrwt>0</asrwt>
<pdfrwt beam="1">  1       21 0.28583228E-01 0.12500000E+03</pdfrwt>
<pdfrwt beam="2">  1       21 0.29554998E-02 0.12500000E+03</pdfrwt>
<totfact> 0.74758536E+06</totfact>
</mgrwt>
</event>
<event>
 6      0 +9.8758382e+01 1.25000000e+02 7.54677100e-03 1.12640300e-01
       21 -1    0    0  502  501 +0.0000000000e+00 +0.0000000000e+00 +1.5328559405e+01 1.5328559405e+01 0.0000000000e+00 0.0000e+00 -1.0000e+00
       21 -1    0    0  501  502 -0.0000000000e+00 -0.0000000000e+00 -2.5483477584e+02 2.5483477584e+02 0.0000000000e+00 0.0000e+00 -1.0000e+00
       25  2    1    2    0    0 +0.0000000000e+00 +0.0000000000e+00 -2.3950621643e+02 2.7016333524e+02 1.2500000000e+02 0.0000e+00 0.0000e+00
      -15  1    3    3    0    0 -1.4063364729e-01 +3.8117204715e+00 +8.8474249268e-01 4.2999405873e+00 1.7770000000e+00 0.0000e+00 -1.0000e+00
       15  1    3    3    0    0 +5.4294673202e+01 -1.7282819542e+01 -1.3668501345e+02 1.4809644838e+02 1.7770000000e+00 0.0000e+00 -1.0000e+00
       22  1    3    3    0    0 -5.4154039555e+01 +1.3471099071e+01 -1.0370594547e+02 1.1776694628e+02 0.0000000000e+00 0.0000e+00 -1.0000e+00
<mgrwt>
<rscale>  2 0.12500000E+03</rscale>
<asrwt>0</asrwt>
<pdfrwt beam="1">  1       21 0.22541999E-02 0.12500000E+03</pdfrwt>
<pdfrwt beam="2">  1       21 0.37475702E-01 0.12500000E+03</pdfrwt>
<totfact> 0.67478382E+06</totfact>
</mgrwt>
</event>
<event>
 6      0 +9.8758382e+01 1.25000000e+02 7.54677100e-03 1.12640300e-01
       21 -1    0    0  502  501 +0.0000000000e+00 +0.0000000000e+00 +4.4536173483e+00 4.4536173483e+00 0.0000000000e+00 0.0000e+00 -1.0000e+00
       21 -1    0    0  501  502 -0.0000000000e+00 -0.0000000000e+00 -8.7709600859e+02 8.7709600859e+02 0.0000000000e+00 0.0000e+00 -1.0000e+00
       25  2    1    2    0    0 +0.0000000000e+00 +0.0000000000e+00 -8.7264239124e+02 8.8154962594e+02 1.2500000000e+02 0.0000e+00 0.0000e+00
      -15  1    3    3    0    0 +4.1450648182e+01 -9.3219977196e+00 -2.9936601803e+02 3.0237100780e+02 1.7770000000e+00 0.0000e+00 -1.0000e+00
       15  1    3    3    0    0 +2.2568684376e+00 +2.7802611875e+01 -3.3864872061e+02 3.3980022423e+02 1.7770000000e+00 0.0000e+00 -1.0000e+00
       22  1    3    3    0    0 -4.3707516619e+01 -1.8480614155e+01 -2.3462765242e+02 2.3937839374e+02 0.0000000000e+00 0.0000e+00 -1.0000e+00
<mgrwt>
<rscale>  2 0.12500000E+03</rscale>
<asrwt>0</asrwt>
<pdfrwt beam="1">  1       21 0.65494451E-03 0.12500000E+03</pdfrwt>
<pdfrwt beam="2">  1       21 0.12898455E+00 0.12500000E+03</pdfrwt>
<totfact> 0.25090419E+06</totfact>
</mgrwt>
</event>
<event>
 6      0 +9.8758382e+01 1.25000000e+02 7.54677100e-03 1.12640300e-01
       21 -1    0    0  502  501 +0.0000000000e+00 +0.0000000000e+00 +2.6675224944e+02 2.6675224944e+02 0.0000000000e+00 0.0000e+00 -1.0000e+00
       21 -1    0    0  501  502 -0.0000000000e+00 -0.0000000000e+00 -1.4643737806e+01 1.4643737806e+01 0.0000000000e+00 0.0000e+00 -1.0000e+00
       25  2    1    2    0    0 +0.0000000000e+00 +0.0000000000e+00 +2.5210851163e+02 2.8139598724e+02 1.2500000000e+02 0.0000e+00 0.0000e+00
      -15  1    3    3    0    0 +2.1331433463e+01 +1.6945853126e+01 +2.3495668074e+01 3.6019385600e+01 1.7770000000e+00 0.0000e+00 -1.0000e+00
       15  1    3    3    0    0 -4.2340037962e+01 -2.1289007590e+01 +6.5538250196e+01 8.0896975386e+01 1.7770000000e+00 0.0000e+00 -1.0000e+00
       22  1    3    3    0    0 +2.1008604499e+01 +4.3431544637e+00 +1.6307459337e+02 1.6447962627e+02 0.0000000000e+00 0.0000e+00 -1.0000e+00
<mgrwt>
<rscale>  2 0.12500000E+03</rscale>
<asrwt>0</asrwt>
<pdfrwt beam="1">  1       21 0.39228269E-01 0.12500000E+03</pdfrwt>
<pdfrwt beam="2">  1       21 0.21534910E-02 0.12500000E+03</pdfrwt>
<totfact> 0.66125067E+06</totfact>
</mgrwt>
</event>
<event>
 6      0 +9.8758382e+01 1.25000000e+02 7.54677100e-03 1.12640300e-01
       21 -1    0    0  502  501 +0.0000000000e+00 +0.0000000000e+00 +1.9326610536e+01 1.9326610536e+01 0.0000000000e+00 0.0000e+00 1.0000e+00
       21 -1    0    0  501  502 -0.0000000000e+00 -0.0000000000e+00 -2.0211769636e+02 2.0211769636e+02 0.0000000000e+00 0.0000e+00 1.0000e+00
       25  2    1    2    0    0 +0.0000000000e+00 +0.0000000000e+00 -1.8279108583e+02 2.2144430690e+02 1.2500000000e+02 0.0000e+00 0.0000e+00
      -15  1    3    3    0    0 +2.3194032074e+00 +2.9002305946e+00 +5.1723135246e+00 6.6107128923e+00 1.7770000000e+00 0.0000e+00 -1.0000e+00
       15  1    3    3    0    0 +4.5331905545e+01 +1.8670358944e+01 -6.6954167958e+01 8.3003507754e+01 1.7770000000e+00 0.0000e+00 -1.0000e+00
       22  1    3    3    0    0 -4.7651308752e+01 -2.1570589539e+01 -1.2100923140e+02 1.3183008626e+02 0.0000000000e+00 0.0000e+00 -1.0000e+00
<mgrwt>
<rscale>  2 0.12500000E+03</rscale>
<asrwt>0</asrwt>
<pdfrwt beam="1">  1       21 0.28421486E-02 0.12500000E+03</pdfrwt>
<pdfrwt beam="2">  1       21 0.29723190E-01 0.12500000E+03</pdfrwt>
<totfact> 0.73795434E+06</totfact>
</mgrwt>
</event>
<event>
 6      0 +9.8758382e+01 1.25000000e+02 7.54677100e-03 1.12640300e-01
       21 -1    0    0  502  501 +0.0000000000e+00 +0.0000000000e+00 +4.9027638817e+02 4.9027638817e+02 0.0000000000e+00 0.0000e+00 -1.0000e+00
       21 -1    0    0  501  502 -0.0000000000e+00 -0.0000000000e+00 -7.9674446787e+00 7.9674446787e+00 0.0000000000e+00 0.0000e+00 -1.0000e+00
       25  2    1    2    0    0 +0.0000000000e+00 +0.0000000000e+00 +4.8230894349e+02 4.9824383284e+02 1.2500000000e+02 0.0000e+00 0.0000e+00
      -15  1    3    3    0    0 +2.7599803672e+01 -3.2747563991e+01 +1.3400310600e+02 1.4069165667e+02 1.7770000000e+00 0.0000e+00 -1.0000e+00
       15  1    3    3    0    0 -2.4733988937e+01 +3.8224165014e+01 +1.0865417261e+02 1.1782081290e+02 1.7770000000e+00 0.0000e+00 -1.0000e+00
       22  1    3    3    0    0 -2.8658147350e+00 -5.4766010238e+00 +2.3965166500e+02 2.3973136339e+02 0.0000000000e+00 0.0000e+00 -1.0000e+00
<mgrwt>
<rscale>  2 0.12500000E+03</rscale>
<asrwt>0</asrwt>
<pdfrwt beam="1">  1       21 0.72099449E-01 0.12500000E+03</pdfrwt>
<pdfrwt beam="2">  1       21 0.11716834E-02 0.12500000E+03</pdfrwt>
<totfact> 0.45456849E+06</totfact>
</mgrwt>
</event>
<event>
 6      0 +9.8758382e+01 1.25000000e+02 7.54677100e-03 1.12640300e-01
       21 -1    0    0  502  501 +0.0000000000e+00 +0.0000000000e+00 +9.2195848344e+01 9.2195848344e+01 0.0000000000e+00 0.0000e+00 1.0000e+00
       21 -1    0    0  501  502 -0.0000000000e+00 -0.0000000000e+00 -4.2369044487e+01 4.2369044487e+01 0.0000000000e+00 0.0000e+00 1.0000e+00
       25  2    1    2    0    0 +0.0000000000e+00 +0.0000000000e+00 +4.9826803857e+01 1.3456489283e+02 1.2500000000e+02 0.0000e+00 0.0000e+00
      -15  1    3    3    0    0 -4.3525533951e+01 -2.4084363272e+00 +1.0563728952e+01 4.4889004997e+01 1.7770000000e+00 0.0000e+00 -1.0000e+00
       15  1    3    3    0    0 +1.7451715776e+01 +3.4118295399e+01 +1.1261987399e+01 3.9982628149e+01 1.7770000000e+00 0.0000e+00 -1.0000e+00
       22  1    3    3    0    0 +2.6073818175e+01 -3.1709859072e+01 +2.8001087506e+01 4.9693259685e+01 0.0000000000e+00 0.0000e+00 -1.0000e+00
<mgrwt>
<rscale>  2 0.12500000E+03</rscale>
<asrwt>0</asrwt>
<pdfrwt beam="1">  1       21 0.13558213E-01 0.12500000E+03</pdfrwt>
<pdfrwt beam="2">  1       21 0.62307418E-02 0.12500000E+03</pdfrwt>
<totfact> 0.87282099E+06</totfact>
</mgrwt>
</event>
<event>
 6      0 +9.8758382e+01 1.25000000e+02 7.54677100e-03 1.12640300e-01
       21 -1    0    0  502  501 +0.0000000000e+00 +0.0000000000e+00 +2.4942968857e+01 2.4942968857e+01 0.0000000000e+00 0.0000e+00 -1.0000e+00
       21 -1    0    0  501  502 -0.0000000000e+00 -0.0000000000e+00 -1.5660725964e+02 1.5660725964e+02 0.0000000000e+00 0.0000e+00 -1.0000e+00
       25  2    1    2    0    0 +0.0000000000e+00 +0.0000000000e+00 -1.3166429078e+02 1.8155022850e+02 1.2500000000e+02 0.0000e+00 0.0000e+00
      -15  1    3    3    0    0 +1.2389998775e+01 +2.3509996364e-01 -7.5877650668e+01 7.6903465081e+01 1.7770000000e+00 0.0000e+00 -1.0000e+00
       15  1    3    3    0    0 +3.0418883364e+01 -1.6386124971e+01 -4.6501228557e+01 5.7959775215e+01 1.7770000000e+00 0.0000e+00 -1.0000e+00
       22  1    3    3    0    0 -4.2808882140e+01 +1.6151025007e+01 -9.2854115455e+00 4.6686988191e+01 0.0000000000e+00 0.0000e+00 -1.0000e+00
<mgrwt>
<rscale>  2 0.12500000E+03</rscale>
<asrwt>0</asrwt>
<pdfrwt beam="1">  1       21 0.36680837E-02 0.12500000E+03</pdfrwt>
<pdfrwt beam="2">  1       21 0.23030479E-01 0.12500000E+03</pdfrwt>
<totfact> 0.79569705E+06</totfact>
</mgrwt>
</event>
<event>
 6      0 +9.8758382e+01 1.25000000e+02 7.54677100e-03 1.12640300e-01
       21 -1    0    0  502  501 +0.0000000000e+00 +0.0000000000e+00 +6.4285286271e+01 6.4285286271e+01 0.0000000000e+00 0.0000e+00 -1.0000e+00
       21 -1    0    0  501  502 -0.0000000000e+00 -0.0000000000e+00 -6.0764293458e+01 6.0764293458e+01 0.0000000000e+00 0.0000e+00 -1.0000e+00
       25  2    1    2    0    0 +0.0000000000e+00 +0.0000000000e+00 +3.5209928137e+00 1.2504957973e+02 1.2500000000e+02 0.0000e+00 0.0000e+00
      -15  1    3    3    0    0 -1.3133990250e+01 -2.3259822759e+01 +1.1204792900e+01 2.9021133120e+01 1.7770000000e+00 0.0000e+00 -1.0000e+00
       15  1    3    3    0    0 +5.1741218902e+00 -3.1873977686e+01 -2.1247565117e+01 3.8695461533e+01 1.7770000000e+00 0.0000e+00 -1.0000e+00
       22  1    3    3    0    0 +7.9598683594e+00 +5.5133800446e+01 +1.3563765031e+01 5.7332985076e+01 0.0000000000e+00 0.0000e+00 -1.0000e+00
<mgrwt>
<rscale>  2 0.12500000E+03</rscale>
<asrwt>0</asrwt>
<pdfrwt beam="1">  1       21 0.94537186E-02 0.12500000E+03</pdfrwt>
<pdfrwt beam="2">  1       21 0.89359255E-02 0.12500000E+03</pdfrwt>
<totfact> 0.88991756E+06</totfact>
</mgrwt>
</event>
<event>
 6      0 +9.8758382e+01 1.25000000e+02 7.54677100e-03 1.12640300e-01
       21 -1    0    0  502  501 +0.0000000000e+00 +0.0000000000e+00 +1.7395249901e+02 1.7395249901e+02 0.0000000000e+00 0.0000e+00 1.0000e+00
       21 -1    0    0  501  502 -0.0000000000e+00 -0.0000000000e+00 -2.2455842959e+01 2.2455842959e+01 0.0000000000e+00 0.0000e+00 1.0000e+00
       25  2    1    2    0    0 +0.0000000000e+00 +0.0000000000e+00 +1.5149665605e+02 1.9640834197e+02 1.2500000000e+02 0.0000e+00 0.0000e+00
      -15  1    3    3    0    0 +3.6674857784e+00 +2.9541570247e+01 +1.6658344525e+01 3.4158644527e+01 1.7770000000e+00 0.0000e+00 -1.0000e+00
       15  1    3    3    0    0 +3.7274195429e+01 -3.0043990352e+01 +8.6678790454e+01 9.9037252813e+01 1.7770000000e+00 0.0000e+00 -1.0000e+00
       22  1    3    3    0    0 -4.0941681207e+01 +5.0242010483e-01 +4.8159521064e+01 6.3212444623e+01 0.0000000000e+00 0.0000e+00 -1.0000e+00
<mgrwt>
<rscale>  2 0.12500000E+03</rscale>
<asrwt>0</asrwt>
<pdfrwt beam="1">  1       21 0.25581249E-01 0.12500000E+03</pdfrwt>
<pdfrwt beam="2">  1       21 0.33023299E-02 0.12500000E+03</pdfrwt>
<totfact> 0.77346368E+06</totfact>
</mgrwt>
</event>
<event>
 6      0 +9.8758382e+01 1.25000000e+02 7.54677100e-03 1.12640300e-01
       21 -1    0    0  502  501 +0.0000000000e+00 +0.0000000000e+00 +8.1690431167e+02 8.1690431167e+02 0.0000000000e+00 0.0000e+00 1.0000e+00
       21 -1    0    0  501  502 -0.0000000000e+00 -0.0000000000e+00 -4.7817717990e+00 4.7817717990e+00 0.0000000000e+00 0.0000e+00 1.0000e+00
       25  2    1    2    0    0 +0.0000000000e+00 +0.0000000000e+00 +8.1212253987e+02 8.2168608346e+02 1.2500000000e+02 0.0000e+00 0.0000e+00
      -15  1    3    3    0    0 +1.0109855290e+00 -2.0983623215e+01 +1.3079163893e+02 1.3247997991e+02 1.7770000000e+00 0.0000e+00 -1.0000e+00
       15  1    3    3    0    0 +3.9616152858e+01 -2.1405841203e+01 +2.8014477913e+02 2.8374619752e+02 1.7770000000e+00 0.0000e+00 -1.0000e+00
       22  1    3    3    0    0 -4.0627138387e+01 +4.2389464418e+01 +4.0118612215e+02 4.0545990637e+02 0.0000000000e+00 0.0000e+00 -1.0000e+00
<mgrwt>
<rscale>  2 0.12500000E+03</rscale>
<asrwt>0</asrwt>
<pdfrwt beam="1">  1       21 0.12013289E+00 0.12500000E+03</pdfrwt>
<pdfrwt beam="2">  1       21 0.70320230E-03 0.12500000E+03</pdfrwt>
<totfact> 0.27391966E+06</totfact>
</mgrwt>
</event>
<event>
 6      0 +9.8758382e+01 1.25000000e+02 7.54677100e-03 1.12640300e-01
       21 -1    0    0  502  501 +0.0000000000e+00 +0.0000000000e+00 +5.5019857364e+01 5.5019857364e+01 0.0000000000e+00 0.0000e+00 1.0000e+00
       21 -1    0    0  501  502 -0.0000000000e+00 -0.0000000000e+00 -7.0997094270e+01 7.0997094270e+01 0.0000000000e+00 0.0000e+00 1.0000e+00
       25  2    1    2    0    0 +0.0000000000e+00 +0.0000000000e+00 -1.5977236905e+01 1.2601695163e+02 1.2500000000e+02 0.0000e+00 0.0000e+00
      -15  1    3    3    0    0 -3.8088670753e+01 -7.1520656439e+00 +7.6331364093e+00 3.9538859154e+01 1.7770000000e+00 0.0000e+00 -1.0000e+00
       15  1    3    3    0    0 -1.1793761248e+01 -7.7272042182e+00 -3.0808743274e+01 3.3928437638e+01 1.7770000000e+00 0.0000e+00 -1.0000e+00
       22  1    3    3    0    0 +4.9882432001e+01 +1.4879269862e+01 +7.1983699595e+00 5.2549654843e+01 0.0000000000e+00 0.0000e+00 -1.0000e+00
<mgrwt>
<rscale>  2 0.12500000E+03</rscale>
<asrwt>0</asrwt>
<pdfrwt beam="1">  1       21 0.80911556E-02 0.12500000E+03</pdfrwt>
<pdfrwt beam="2">  1       21 0.10440749E-01 0.12500000E+03</pdfrwt>
<totfact> 0.88808700E+06</totfact>
</mgrwt>
</event>
<event>
 6      0 +9.8758382e+01 1.25000000e+02 7.54677100e-03 1.12640300e-01
       21 -1    0    0  502  501 +0.0000000000e+00 +0.0000000000e+00 +1.3645558954e+02 1.3645558954e+02 0.0000000000e+00 0.0000e+00 1.0000e+00
       21 -1    0    0  501  502 -0.0000000000e+00 -0.0000000000e+00 -2.8626529797e+01 2.8626529797e+01 0.0000000000e+00 0.0000e+00 1.0000e+00
       25  2    1    2    0    0 +0.0000000000e+00 +0.0000000000e+00 +1.0782905974e+02 1.6508211934e+02 1.2500000000e+02 0.0000e+00 0.0000e+00
      -15  1    3    3    0    0 -1.5352996225e+01 +2.7024513317e+01 +1.7016851576e+01 3.5479145700e+01 1.7770000000e+00 0.0000e+00 -1.0000e+00
       15  1    3    3    0    0 -2.5631082294e+01 +2.2244573676e+00 +2.5652633719e-02 2.5788737410e+01 1.7770000000e+00 0.0000e+00 -1.0000e+00
       22  1    3    3    0    0 +4.0984078520e+01 -2.9248970684e+01 +9.0786555525e+01 1.0381423622e+02 0.0000000000e+00 0.0000e+00 -1.0000e+00
<mgrwt>
<rscale>  2 0.12500000E+03</rscale>
<asrwt>0</asrwt>
<pdfrwt beam="1">  1       21 0.20066998E-01 0.12500000E+03</pdfrwt>
<pdfrwt beam="2">  1       21 0.42097839E-02 0.12500000E+03</pdfrwt>
<totfact> 0.82152921E+06</totfact>
</mgrwt>
</event>
<event>
 6      0 +9.8758382e+01 1.25000000e+02 7.54677100e-03 1.12640300e-01
       21 -1    0    0  502  501 +0.0000000000e+00 +0.0000000000e+00 +1.0421525531e+01 1.0421525531e+01 0.0000000000e+00 0.0000e+00 -1.0000e+00
       21 -1    0    0  501  502 -0.0000000000e+00 -0.0000000000e+00 -3.7482516245e+02 3.7482516245e+02 0.0000000000e+00 0.0000e+00 -1.0000e+00
       25  2    1    2    0    0 +0.0000000000e+00 +0.0000000000e+00 -3.6440363692e+02 3.8524668798e+02 1.2500000000e+02 0.0000e+00 0.0000e+00
      -15  1    3    3    0    0 +2.3531144292e+01 -4.2243472397e+00 -1.3676810362e+02 1.3885327421e+02 1.7770000000e+00 0.0000e+00 -1.0000e+00
       15  1    3    3    0    0 -1.7431190636e+01 +7.8500544806e+00 -2.3522268519e+02 2.3600495571e+02 1.7770000000e+00 0.0000e+00 -1.0000e+00
       22  1    3    3    0    0 -6.0999536559e+00 -3.6257072409e+00 +7.5871518779e+00 1.0388458076e+01 0.0000000000e+00 0.0000e+00 -1.0000e+00
<mgrwt>
<rscale>  2 0.12500000E+03</rscale>
<asrwt>0</asrwt>
<pdfrwt beam="1">  1       21 0.15325771E-02 0.12500000E+03</pdfrwt>
<pdfrwt beam="2">  1       21 0.55121353E-01 0.12500000E+03</pdfrwt>
<totfact> 0.55041030E+06</totfact>
</mgrwt>
</event>
<event>
 6      0 +9.8758382e+01 1.25000000e+02 7.54677100e-03 1.12640300e-01
       21 -1    0    0  502  501 +0.0000000000e+00 +0.0000000000e+00 +2.3624629758e+01 2.3624629758e+01 0.0000000000e+00 0.0000e+00 -1.0000e+00
       21 -1    0    0  501  502 -0.0000000000e+00 -0.0000000000e+00 -1.6534650659e+02 1.6534650659e+02 0.0000000000e+00 0.0000e+00 -1.0000e+00
       25  2    1    2    0    0 +0.0000000000e+00 +0.0000000000e+00 -1.4172187684e+02 1.8897113635e+02 1.2500000000e+02 0.0000e+00 0.0000e+00
      -15  1    3    3    0    0 -2.7124938608e+01 +2.8140348059e-01 +6.1566025379e-01 2.7191510605e+01 1.7770000000e+00 0.0000e+00 -1.0000e+00
       15  1    3    3    0    0 +8.3012947774e+00 -3.5277444140e+01 -5.5873532284e+01 6.6621459748e+01 1.7770000000e+00 0.0000e+00 -1.0000e+00
       22  1    3    3    0    0 +1.8823643831e+01 +3.4996040659e+01 -8.6464004817e+01 9.5158166007e+01 0.0000000000e+00 0.0000e+00 -1.0000e+00
<mgrwt>
<rscale>  2 0.12500000E+03</rscale>
<asrwt>0</asrwt>
<pdfrwt beam="1">  1       21 0.34742102E-02 0.12500000E+03</pdfrwt>
<pdfrwt beam="2">  1       21 0.24315663E-01 0.12500000E+03</pdfrwt>
<totfact> 0.78451272E+06</totfact>
</mgrwt>
</event>
<event>
 6      0 +9.8758382e+01 1.25000000e+02 7.54677100e-03 1.12640300e-01
       21 -1    0    0  502  501 +0.0000000000e+00 +0.0000000000e+00 +6.5807658123e+01 6.5807658123e+01 0.0000000000e+00 0.0000e+00 1.0000e+00
       21 -1    0    0  501  502 -0.0000000000e+00 -0.0000000000e+00 -5.9358593079e+01 5.9358593079e+01 0.0000000000e+00 0.0000e+00 1.0000e+00
       25  2    1    2    0    0 +0.0000000000e+00 +0.0000000000e+00 +6.4490650437e+00 1.2516625120e+02 1.2500000000e+02 0.0000e+00 0.0000e+00
      -15  1    3    3    0    0 +3.0180132004e+01 +8.9090792501e+00 +3.1532217609e+01 4.4583074560e+01 1.7770000000e+00 0.0000e+00 -1.0000e+00
       15  1    3    3    0    0 +2.1692629803e+01 +5.2114547083e+00 -3.5018096271e+00 2.2652811031e+01 1.7770000000e+00 0.0000e+00 -1.0000e+00
       22  1    3    3    0    0 -5.1872761807e+01 -1.4120533958e+01 -2.1581342938e+01 5.7930365611e+01 0.0000000000e+00 0.0000e+00 -1.0000e+00
<mgrwt>
<rscale>  2 0.12500000E+03</rscale>
<asrwt>0</asrwt>
<pdfrwt beam="1">  1       21 0.96775968E-02 0.12500000E+03</pdfrwt>
<pdfrwt beam="2">  1       21 0.87292049E-02 0.12500000E+03</pdfrwt>
<totfact> 0.88967515E+06</totfact>
</mgrwt>
</event>
<event>
 6      0 +9.8758382e+01 1.25000000e+02 7.54677100e-03 1.12640300e-01
       21 -1    0    0  502  501 +0.0000000000e+00 +0.0000000000e+00 +1.3214186237e+02 1.3214186237e+02 0.0000000000e+00 0.0000e+00 1.0000e+00
       21 -1    0    0  501  502 -0.0000000000e+00 -0.0000000000e+00 -2.9561033347e+01 2.9561033347e+01 0.0000000000e+00 0.0000e+00 1.0000e+00
       25  2    1    2    0    0 +0.0000000000e+00 +0.0000000000e+00 +1.0258082902e+02 1.6170289571e+02 1.2500000000e+02 0.0000e+00 0.0000e+00
      -15  1    3    3    0    0 +8.5489118159e+00 +7.2529368283e+00 +1.2664492775e+01 1.7006942468e+01 1.7770000000e+00 0.0000e+00 -1.0000e+00
       15  1    3    3    0    0 -3.9872643595e+00 +4.0315844871e+01 -2.5286346011e+00 4.0630251620e+01 1.7770000000e+00 0.0000e+00 -1.0000e+00
       22  1    3    3    0    0 -4.5616474564e+00 -4.7568781700e+01 +9.2444970851e+01 1.0406570163e+02 0.0000000000e+00 0.0000e+00 -1.0000e+00
<mgrwt>
<rscale>  2 0.12500000E+03</rscale>
<asrwt>0</asrwt>
<pdfrwt beam="1">  1       21 0.19432627E-01 0.12500000E+03</pdfrwt>
<pdfrwt beam="2">  1       21 0.43472108E-02 0.12500000E+03</pdfrwt>
<totfact> 0.82701593E+06</totfact>
</mgrwt>
</event>
<event>
 6      0 +9.8758382e+01 1.25000000e+02 7.54677100e-03 1.12640300e-01
       21 -1    0    0  502  501 +0.0000000000e+00 +0.0000000000e+00 +4.2641347833e+01 4.2641347833e+01 0.0000000000e+00 0.0000e+00 -1.0000e+00
       21 -1    0    0  501  502 -0.0000000000e+00 -0.0000000000e+00 -9.1607094957e+01 9.1607094957e+01 0.0000000000e+00 0.0000e+00 -1.0000e+00
       25  2    1    2    0    0 +0.0000000000e+00 +0.0000000000e+00 -4.8965747124e+01 1.3424844279e+02 1.2500000000e+02 0.0000e+00 0.0000e+00
      -15  1    3    3    0    0 -2.3393241562e+01 -1.7459488138e+01 -7.5935272118e+00 3.0214183115e+01 1.7770000000e+00 0.0000e+00 -1.0000e+00
       15  1    3    3    0    0 +2.6382208595e+01 -3.0581638933e+01 +2.0683197161e-01 4.0428431563e+01 1.7770000000e+00 0.0000e+00 -1.0000e+00
       22  1    3    3    0    0 -2.9889670333e+00 +4.8041127071e+01 -4.1579051884e+01 6.3605828112e+01 0.0000000000e+00 0.0000e+00 -1.0000e+00
<mgrwt>
<rscale>  2 0.12500000E+03</rscale>
<asrwt>0</asrwt>
<pdfrwt beam="1">  1       21 0.62707865E-02 0.12500000E+03</pdfrwt>
<pdfrwt beam="2">  1       21 0.13471631E-01 0.12500000E+03</pdfrwt>
<totfact> 0.87337657E+06</totfact>
</mgrwt>
</event>
<event>
 6      0 +9.8758382e+01 1.25000000e+02 7.54677100e-03 1.12640300e-01
       21 -1    0    0  502  501 +0.0000000000e+00 +0.0000000000e+00 +5.1577375739e+02 5.1577375739e+02 0.0000000000e+00 0.0000e+00 1.0000e+00
       21 -1    0    0  501  502 -0.0000000000e+00 -0.0000000000e+00 -7.5735726063e+00 7.5735726063e+00 0.0000000000e+00 0.0000e+00 1.0000e+00
       25  2    1    2    0    0 +0.0000000000e+00 +0.0000000000e+00 +5.0820018478e+02 5.2334733000e+02 1.2500000000e+02 0.0000e+00 0.0000e+00
      -15  1    3    3    0    0 +3.1246414334e+01 +1.4145956685e+01 +2.4815126694e+02 2.5051677691e+02 1.7770000000e+00 0.0000e+00 -1.0000e+00
       15  1    3    3    0    0 +5.8702495350e+00 +1.8509255117e+01 +1.6051959623e+02 1.6169956975e+02 1.7770000000e+00 0.0000e+00 -1.0000e+00
       22  1    3    3    0    0 -3.7116663869e+01 -3.2655211803e+01 +9.9529321483e+01 1.1113098321e+02 0.0000000000e+00 0.0000e+00 -1.0000e+00
<mgrwt>
<rscale>  2 0.12500000E+03</rscale>
<asrwt>0</asrwt>
<pdfrwt beam="1">  1       21 0.75849058E-01 0.12500000E+03</pdfrwt>
<pdfrwt beam="2">  1       21 0.11137610E-02 0.12500000E+03</pdfrwt>
<totfact> 0.43633791E+06</totfact>
</mgrwt>
</event>
<event>
 6      0 +9.8758382e+01 1.25000000e+02 7.54677100e-03 1.12640300e-01
       21 -1    0    0  502  501 +0.0000000000e+00 +0.0000000000e+00 +2.6160390924e+02 2.6160390924e+02 0.0000000000e+00 0.0000e+00 1.0000e+00
       21 -1    0    0  501  502 -0.0000000000e+00 -0.0000000000e+00 -1.4931925182e+01 1.4931925182e+01 0.0000000000e+00 0.0000e+00 1.0000e+00
       25  2    1    2    0    0 +0.0000000000e+00 +0.0000000000e+00 +2.4667198405e+02 2.7653583442e+02 1.2500000000e+02 0.0000e+00 0.0000e+00
      -15  1    3    3    0    0 +8.0195153624e+00 -2.1793745457e+01 +2.3675762862e+01 3.3211134335e+01 1.7770000000e+00 0.0000e+00 -1.0000e+00
       15  1    3    3    0    0 +2.8852685046e+01 +4.4999993869e+01 +1.3248919173e+02 1.4287764183e+02 1.7770000000e+00 0.0000e+00 -1.0000e+00
       22  1    3    3    0    0 -3.6872200409e+01 -2.3206248412e+01 +9.0507029437e+01 1.0044705822e+02 0.0000000000e+00 0.0000e+00 -1.0000e+00
<mgrwt>
<rscale>  2 0.12500000E+03</rscale>
<asrwt>0</asrwt>
<pdfrwt beam="1">  1       21 0.38471160E-01 0.12500000E+03</pdfrwt>
<pdfrwt beam="2">  1       21 0.21958715E-02 0.12500000E+03</pdfrwt>
<totfact> 0.66706329E+06</totfact>
</mgrwt>
</event>
<event>
 6      0 +9.8758382e+01 1.25000000e+02 7.54677100e-03 1.12640300e-01
       21 -1    0    0  502  501 +0.0000000000e+00 +0.0000000000e+00 +2.4507095156e+02 2.4507095156e+02 0.0000000000e+00 0.0000e+00 1.0000e+00
       21 -1    0    0  501  502 -0.0000000000e+00 -0.0000000000e+00 -1.5939261569e+01 1.5939261569e+01 0.0000000000e+00 0.0000e+00 1.0000e+00
       25  2    1    2    0    0 +0.0000000000e+00 +0.0000000000e+00 +2.2913168999e+02 2.6101021313e+02 1.2500000000e+02 0.0000e+00 0.0000e+00
      -15  1    3    3    0    0 +2.0322411906e+01 -3.5574566013e+01 +9.2624141867e+01 1.0129629588e+02 1.7770000000e+00 0.0000e+00 -1.0000e+00
       15  1    3    3    0    0 +2.2561309493e+00 +1.6455010803e+01 +1.2778010651e+02 1.2886726061e+02 1.7770000000e+00 0.0000e+00 -1.0000e+00
       22  1    3    3    0    0 -2.2578542855e+01 +1.9119555210e+01 +8.7274416054e+00 3.0846656639e+01 0.0000000000e+00 0.0000e+00 -1.0000e+00
<mgrwt>
<rscale>  2 0.12500000E+03</rscale>
<asrwt>0</asrwt>
<pdfrwt beam="1">  1       21 0.36039843E-01 0.12500000E+03</pdfrwt>
<pdfrwt beam="2">  1       21 0.23440092E-02 0.12500000E+03</pdfrwt>
<totfact> 0.68608359E+06</totfact>
</mgrwt>
</event>
<event>
 6      0 +9.8758382e+01 1.25000000e+02 7.54677100e-03 1.12640300e-01
       21 -1    0    0  502  501 +0.0000000000e+00 +0.0000000000e+00 +8.1567669334e+01 8.1567669334e+01 0.0000000000e+00 0.0000e+00 -1.0000e+00
       21 -1    0    0  501  502 -0.0000000000e+00 -0.0000000000e+00 -4.7889685115e+01 4.7889685115e+01 0.0000000000e+00 0.0000e+00 -1.0000e+00
       25  2    1    2    0    0 +0.0000000000e+00 +0.0000000000e+00 +3.3677984219e+01 1.2945735445e+02 1.2500000000e+02 0.0000e+00 0.0000e+00
      -15  1    3    3    0    0 -6.5216167529e+00 -4.3757715464e+01 +1.4430642149e+01 4.6568984416e+01 1.7770000000e+00 0.0000e+00 -1.0000e+00
       15  1    3    3    0    0 +2.7631118252e+01 -4.3994770239e+00 +6.1926730887e+00 2.8711339622e+01 1.7770000000e+00 0.0000e+00 -1.0000e+00
       22  1    3    3    0    0 -2.1109501499e+01 +4.8157192488e+01 +1.3054668981e+01 5.4177030411e+01 0.0000000000e+00 0.0000e+00 -1.0000e+00
<mgrwt>
<rscale>  2 0.12500000E+03</rscale>
<asrwt>0</asrwt>
<pdfrwt beam="1">  1       21 0.11995246E-01 0.12500000E+03</pdfrwt>
<pdfrwt beam="2">  1       21 0.70426007E-02 0.12500000E+03</pdfrwt>
<totfact> 0.88196686E+06</totfact>
</mgrwt>
</event>
<event>
 6      0 +9.8758382e+01 1.25000000e+02 7.54677100e-03 1.12640300e-01
       21 -1    0    0  502  501 +0.0000000000e+00 +0.0000000000e+00 +6.6177143060e+01 6.6177143060e+01 0.0000000000e+00 0.0000e+00 -1.0000e+00
       21 -1    0    0  501  502 -0.0000000000e+00 -0.0000000000e+00 -5.9027177956e+01 5.9027177956e+01 0.0000000000e+00 0.0000e+00 -1.0000e+00
       25  2    1    2    0    0 +0.0000000000e+00 +0.0000000000e+00 +7.1499651038e+00 1.2520432102e+02 1.2500000000e+02 0.0000e+00 0.0000e+00
      -15  1    3    3    0    0 -3.2670449922e+01 -1.3652788620e+01 +1.9498133035e+01 4.0460991783e+01 1.7770000000e+00 0.0000e+00 -1.0000e+00
       15  1    3    3    0    0 +1.3711189453e+01 -2.5200429454e+01 +1.6143297857e+01 3.2966985842e+01 1.7770000000e+00 0.0000e+00 -1.0000e+00
       22  1    3    3    0    0 +1.8959260468e+01 +3.8853218073e+01 -2.8491465788e+01 5.1776343390e+01 0.0000000000e+00 0.0000e+00 -1.0000e+00
<mgrwt>
<rscale>  2 0.12500000E+03</rscale>
<asrwt>0</asrwt>
<pdfrwt beam="1">  1       21 0.97319329E-02 0.12500000E+03</pdfrwt>
<pdfrwt beam="2">  1       21 0.86804673E-02 0.12500000E+03</pdfrwt>
<totfact> 0.88959935E+06</totfact>
</mgrwt>
</event>
<event>
 6      0 +9.8758382e+01 1.25000000e+02 7.54677100e-03 1.12640300e-01
       21 -1    0    0  502  501 +0.0000000000e+00 +0.0000000000e+00 +6.3514090396e+02 6.3514090396e+02 0.0000000000e+00 0.0000e+00 -1.0000e+00
       21 -1    0    0  501  502 -0.0000000000e+00 -0.0000000000e+00 -6.1502100961e+00 6.1502100961e+00 0.0000000000e+00 0.0000e+00 -1.0000e+00
       25  2    1    2    0    0 +0.0000000000e+00 +0.0000000000e+00 +6.2899069386e+02 6.4129111406e+02 1.2500000000e+02 0.0000e+00 0.0000e+00
      -15  1    3    3    0    0 +8.8982445994e+00 -8.6543273736e+00 +1.1522608746e+01 1.7029514984e+01 1.7770000000e+00 0.0000e+00 -1.0000e+00
       15  1    3    3    0    0 -1.2094203427e+01 -4.0165688533e+01 +3.2998732822e+02 3.3264748129e+02 1.7770000000e+00 0.0000e+00 -1.0000e+00
       22  1    3    3    0    0 +3.1959588275e+00 +4.8820015907e+01 +2.8748075670e+02 2.9161411759e+02 0.0000000000e+00 0.0000e+00 -1.0000e+00
<mgrwt>
<rscale>  2 0.12500000E+03</rscale>
<asrwt>0</asrwt>
<pdfrwt beam="1">  1       21 0.93403029E-01 0.12500000E+03</pdfrwt>
<pdfrwt beam="2">  1       21 0.90444310E-03 0.12500000E+03</pdfrwt>
<totfact> 0.36038222E+06</totfact>
</mgrwt>
</event>
<event>
 6      0 +9.8758382e+01 1.25000000e+02 7.54677100e-03 1.12640300e-01
       21 -1    0    0  502  501 +0.0000000000e+00 +0.0000000000e+00 +2.2232272279e+01 2.2232272279e+01 0.0000000000e+00 0.0000e+00 1.0000e+00
       21 -1    0    0  501  502 -0.0000000000e+00 -0.0000000000e+00 -1.7570178842e+02 1.7570178842e+02 0.0000000000e+00 0.0000e+00 1.0000e+00
       25  2    1    2    0    0 +0.0000000000e+00 +0.0000000000e+00 -1.5346951614e+02 1.9793406070e+02 1.2500000000e+02 0.0000e+00 0.0000e+00
      -15  1    3    3    0    0 +8.5504534553e+00 +3.9096976478e+01 -4.4708785671e+01 6.0030967585e+01 1.7770000000e+00 0.0000e+00 -1.0000e+00
       15  1    3    3    0    0 +5.4538282507e+00 +1.6730102540e+01 -3.6400978156e+00 1.8056816295e+01 1.7770000000e+00 0.0000e+00 -1.0000e+00
       22  1    3    3    0    0 -1.4004281706e+01 -5.5827079018e+01 -1.0512063265e+02 1.1984627682e+02 0.0000000000e+00 0.0000e+00 -1.0000e+00
<mgrwt>
<rscale>  2 0.12500000E+03</rscale>
<asrwt>0</asrwt>
<pdfrwt beam="1">  1       21 0.32694519E-02 0.12500000E+03</pdfrwt>
<pdfrwt beam="2">  1       21 0.25838498E-01 0.12500000E+03</pdfrwt>
<totfact> 0.77121462E+06</totfact>
</mgrwt>
</event>
<event>
 6      0 +9.8758382e+01 1.25000000e+02 7.54677100e-03 1.12640300e-01
       21 -1    0    0  502  501 +0.0000000000e+00 +0.0000000000e+00 +2.4323472374e+01 2.4323472374e+01 0.0000000000e+00 0.0000e+00 1.0000e+00
       21 -1    0    0  501  502 -0.0000000000e+00 -0.0000000000e+00 -1.6059590259e+02 1.6059590259e+02 0.0000000000e+00 0.0000e+00 1.0000e+00
       25  2    1    2    0    0 +0.0000000000e+00 +0.0000000000e+00 -1.3627243022e+02 1.8491937496e+02 1.2500000000e+02 0.0000e+00 0.0000e+00
      -15  1    3    3    0    0 -1.3993466489e+01 +9.0299948302e+00 -8.0106280747e+01 8.1838449736e+01 1.7770000000e+00 0.0000e+00 -1.0000e+00
       15  1    3    3    0    0 -2.9019663997e+00 +1.0430382252e+01 -7.2001945604e+01 7.2833043206e+01 1.7770000000e+00 0.0000e+00 -1.0000e+00
       22  1    3    3    0    0 +1.6895432888e+01 -1.9460377083e+01 +1.5835796121e+01 3.0247882033e+01 0.0000000000e+00 0.0000e+00 -1.0000e+00
<mgrwt>
<rscale>  2 0.12500000E+03</rscale>
<asrwt>0</asrwt>
<pdfrwt beam="1">  1       21 0.35769813E-02 0.12500000E+03</pdfrwt>
<pdfrwt beam="2">  1       21 0.23617044E-01 0.12500000E+03</pdfrwt>
<totfact> 0.79059245E+06</totfact>
</mgrwt>
</event>
<event>
 6      0 +9.8758382e+01 1.25000000e+02 7.54677100e-03 1.12640300e-01
       21 -1    0    0  502  501 +0.0000000000e+00 +0.0000000000e+00 +2.1037367552e+01 2.1037367552e+01 0.0000000000e+00 0.0000e+00 -1.0000e+00
       21 -1    0    0  501  502 -0.0000000000e+00 -0.0000000000e+00 -1.8568150176e+02 1.8568150176e+02 0.0000000000e+00 0.0000e+00 -1.0000e+00
       25  2    1    2    0    0 +0.0000000000e+00 +0.0000000000e+00 -1.6464413421e+02 2.0671886931e+02 1.2500000000e+02 0.0000e+00 0.0000e+00
      -15  1    3    3    0    0 -3.3376041405e+01 +1.2632307924e+01 -9.8749887914e+00 3.7070317991e+01 1.7770000000e+00 0.0000e+00 -1.0000e+00
       15  1    3    3    0    0 +4.0835474883e+01 -1.8048501932e+01 -6.2001437094e+01 7.6423951492e+01 1.7770000000e+00 0.0000e+00 -1.0000e+00
       22  1    3    3    0    0 -7.4594334779e+00 +5.4161940079e+00 -9.2767708327e+01 9.3224599831e+01 0.0000000000e+00 0.0000e+00 -1.0000e+00
<mgrwt>
<rscale>  2 0.12500000E+03</rscale>
<asrwt>0</asrwt>
<pdfrwt beam="1">  1       21 0.30937305E-02 0.12500000E+03</pdfrwt>
<pdfrwt beam="2">  1       21 0.27306104E-01 0.12500000E+03</pdfrwt>
<totfact> 0.75849813E+06</totfact>
</mgrwt>
</event>
<event>
 6      0 +9.8758382e+01 1.25000000e+02 7.54677100e-03 1.12640300e-01
       21 -1    0    0  502  501 +0.0000000000e+00 +0.0000000000e+00 +4.0041934111e+00 4.0041934111e+00 0.0000000000e+00 0.0000e+00 1.0000e+00
       21 -1    0    0  501  502 -0.0000000000e+00 -0.0000000000e+00 -9.7553979014e+02 9.7553979014e+02 0.0000000000e+00 0.0000e+00 1.0000e+00
       25  2    1    2    0    0 +0.0000000000e+00 +0.0000000000e+00 -9.7153559673e+02 9.7954398356e+02 1.2500000000e+02 0.0000e+00 0.0000e+00
      -15  1    3    3    0    0 +1.3532259675e+01 -4.1865363400e+00 -1.2542072442e+02 1.2623060239e+02 1.7770000000e+00 0.0000e+00 -1.0000e+00
       15  1    3    3    0    0 +9.4073952116e+00 +1.9079305555e+01 -3.0433294459e+01 3.7173406163e+01 1.7770000000e+00 0.0000e+00 -1.0000e+00
       22  1    3    3    0    0 -2.2939654886e+01 -1.4892769215e+01 -8.1568157739e+02 8.1613997453e+02 0.0000000000e+00 0.0000e+00 -1.0000e+00
<mgrwt>
<rscale>  2 0.12500000E+03</rscale>
<asrwt>0</asrwt>
<pdfrwt beam="1">  1       21 0.58885180E-03 0.12500000E+03</pdfrwt>
<pdfrwt beam="2">  1       21 0.14346178E+00 0.12500000E+03</pdfrwt>
<totfact> 0.21801962E+06</totfact>
</mgrwt>
</event>
<event>
 6      0 +9.8758382e+01 1.25000000e+02 7.54677100e-03 1.12640300e-01
       21 -1    0    0  502  501 +0.0000000000e+00 +0.0000000000e+00 +3.5757443636e+01 3.5757443636e+01 0.0000000000e+00 0.0000e+00 1.0000e+00
       21 -1    0    0  501  502 -0.0000000000e+00 -0.0000000000e+00 -1.0924298839e+02 1.0924298839e+02 0.0000000000e+00 0.0000e+00 1.0000e+00
       25  2    1    2    0    0 +0.0000000000e+00 +0.0000000000e+00 -7.3485544755e+01 1.4500043203e+02 1.2500000000e+02 0.0000e+00 0.0000e+00
      -15  1    3    3    0    0 -1.6998852110e+01 -2.3067636491e+01 -3.2275450404e+01 4.3196519005e+01 1.7770000000e+00 0.0000e+00 -1.0000e+00
       15  1    3    3    0    0 -2.4447727830e+01 +4.0761106507e+01 -1.6097604723e+01 5.0214039934e+01 1.7770000000e+00 0.0000e+00 -1.0000e+00
       22  1    3    3    0    0 +4.1446579940e+01 -1.7693470016e+01 -2.5112489626e+01 5.1589873087e+01 0.0000000000e+00 0.0000e+00 -1.0000e+00
<mgrwt>
<rscale>  2 0.12500000E+03</rscale>
<asrwt>0</asrwt>
<pdfrwt beam="1">  1       21 0.52584476E-02 0.12500000E+03</pdfrwt>
<pdfrwt beam="2">  1       21 0.16065145E-01 0.12500000E+03</pdfrwt>
<totfact> 0.85474183E+06</totfact>
</mgrwt>
</event>
<event>
 6      0 +9.8758382e+01 1.25000000e+02 7.54677100e-03 1.12640300e-01
       21 -1    0    0  502  501 +0.0000000000e+00 +0.0000000000e+00 +9.8050616622e+01 9.8050616622e+01 0.0000000000e+00 0.0000e+00 -1.0000e+00
       21 -1    0    0  501  502 -0.0000000000e+00 -0.0000000000e+00 -3.9839117127e+01 3.9839117127e+01 0.0000000000e+00 0.0000e+00 -1.0000e+00
       25  2    1    2    0    0 +0.0000000000e+00 +0.0000000000e+00 +5.8211499495e+01 1.3788973375e+02 1.2500000000e+02 0.0000e+00 0.0000e+00
      -15  1    3    3    0    0 +3.7188363719e+01 +1.9754657303e+01 +4.0538771122e+01 5.8478804488e+01 1.7770000000e+00 0.0000e+00 -1.0000e+00
       15  1    3    3    0    0 -2.3634795077e+01 -1.1563828404e+01 +4.2467882057e+01 4.9990043019e+01 1.7770000000e+00 0.0000e+00 -1.0000e+00
       22  1    3    3    0    0 -1.3553568643e+01 -8.1908288996e+00 -2.4795153684e+01 2.9420886241e+01 0.0000000000e+00 0.0000e+00 -1.0000e+00
<mgrwt>
<rscale>  2 0.12500000E+03</rscale>
<asrwt>0</asrwt>
<pdfrwt beam="1">  1       21 0.14419208E-01 0.12500000E+03</pdfrwt>
<pdfrwt beam="2">  1       21 0.58586937E-02 0.12500000E+03</pdfrwt>
<totfact> 0.86704326E+06</totfact>
</mgrwt>
</event>
<event>
 6      0 +9.8758382e+01 1.25000000e+02 7.54677100e-03 1.12640300e-01
       21 -1    0    0  502  501 +0.0000000000e+00 +0.0000000000e+00 +1.8862442002e+02 1.8862442002e+02 0.0000000000e+00 0.0000e+00 1.0000e+00
       21 -1    0    0  501  502 -0.0000000000e+00 -0.0000000000e+00 -2.0709142536e+01 2.0709142536e+01 0.0000000000e+00 0.0000e+00 1.0000e+00
       25  2    1    2    0    0 +0.0000000000e+00 +0.0000000000e+00 +1.6791527749e+02 2.0933356256e+02 1.2500000000e+02 0.0000e+00 0.0000e+00
      -15  1    3    3    0    0 +3.2217770024e+01 +3.1623896645e+01 +2.1600096654e+01 5.0077714093e+01 1.7770000000e+00 0.0000e+00 -1.0000e+00
       15  1    3    3    0    0 -2.0091125795e+01 +6.9619829719e+00 +3.7191798192e+01 4.2877851209e+01 1.7770000000e+00 0.0000e+00 -1.0000e+00
       22  1    3    3    0    0 -1.2126644230e+01 -3.8585879617e+01 +1.0912338265e+02 1.1637799726e+02 0.0000000000e+00 0.0000e+00 -1.0000e+00
<mgrwt>
<rscale>  2 0.12500000E+03</rscale>
<asrwt>0</asrwt>
<pdfrwt beam="1">  1       21 0.27738884E-01 0.12500000E+03</pdfrwt>
<pdfrwt beam="2">  1       21 0.30454622E-02 0.12500000E+03</pdfrwt>
<totfact> 0.75478478E+06</totfact>
</mgrwt>
</event>
<event>
 6      0 +9.8758382e+01 1.25000000e+02 7.54677100e-03 1.12640300e-01
       21 -1    0    0  502  501 +0.0000000000e+00 +0.0000000000e+00 +5.4147867688e+00 5.4147867688e+00 0.0000000000e+00 0.0000e+00 1.0000e+00
       21 -1    0    0  501  502 -0.0000000000e+00 -0.0000000000e+00 -7.2140421531e+02 7.2140421531e+02 0.0000000000e+00 0.0000e+00 1.0000e+00
       25  2    1    2    0    0 +0.0000000000e+00 +0.0000000000e+00 -7.1598942854e+02 7.2681900208e+02 1.2500000000e+02 0.0000e+00 0.0000e+00
      -15  1    3    3    0    0 +1.0295531865e+01 -2.2585862940e+01 -3.9578257694e+01 4.6751635182e+01 1.7770000000e+00 0.0000e+00 -1.0000e+00
       15  1    3    3    0    0 -5.3612901249e+00 -9.5406803355e-01 -3.4713806030e+00 6.6979019044e+00 1.7770000000e+00 0.0000e+00 -1.0000e+00
       22  1    3    3    0    0 -4.9342417405e+00 +2.3539930973e+01 -6.7293979016e+02 6.7336946491e+02 0.0000000000e+00 0.0000e+00 -1.0000e+00
<mgrwt>
<rscale>  2 0.12500000E+03</rscale>
<asrwt>0</asrwt>
<pdfrwt beam="1">  1       21 0.79629250E-03 0.12500000E+03</pdfrwt>
<pdfrwt beam="2">  1       21 0.10608881E+00 0.12500000E+03</pdfrwt>
<totfact> 0.31586913E+06</totfact>
</mgrwt>
</event>
<event>
 6      0 +9.8758382e+01 1.25000000e+02 7.54677100e-03 1.12640300e-01
       21 -1    0    0  502  501 +0.0000000000e+00 +0.0000000000e+00 +9.8330157570e+02 9.8330157570e+02 0.0000000000e+00 0.0000e+00 1.0000e+00
       21 -1    0    0  501  502 -0.0000000000e+00 -0.0000000000e+00 -3.9725859254e+00 3.9725859254e+00 0.0000000000e+00 0.0000e+00 1.0000e+00
       25  2    1    2    0    0 +0.0000000000e+00 +0.0000000000e+00 +9.7932898977e+02 9.8727416162e+02 1.2500000000e+02 0.0000e+00 0.0000e+00
      -15  1    3    3    0    0 -1.9020512870e+00 +4.6089816033e+00 +3.9371917366e+01 3.9726138959e+01 1.7770000000e+00 0.0000e+00 -1.0000e+00
       15  1    3    3    0    0 -5.1932489844e+00 +5.2824167031e+01 +6.3003447149e+02 6.3226889490e+02 1.7770000000e+00 0.0000e+00 -1.0000e+00
       22  1    3    3    0    0 +7.0953002714e+00 -5.7433148635e+01 +3.0992260096e+02 3.1527912781e+02 0.0000000000e+00 0.0000e+00 -1.0000e+00
<mgrwt>
<rscale>  2 0.12500000E+03</rscale>
<asrwt>0</asrwt>
<pdfrwt beam="1">  1       21 0.14460300E+00 0.12500000E+03</pdfrwt>
<pdfrwt beam="2">  1       21 0.58420449E-03 0.12500000E+03</pdfrwt>
<totfact> 0.21564826E+06</totfact>
</mgrwt>
</event>
<event>
 6      0 +9.8758382e+01 1.25000000e+02 7.54677100e-03 1.12640300e-01
       21 -1    0    0  502  501 +0.0000000000e+00 +0.0000000000e+00 +9.4497874233e+02 9.4497874233e+02 0.0000000000e+00 0.0000e+00 1.0000e+00
       21 -1    0    0  501  502 -0.0000000000e+00 -0.0000000000e+00 -4.1336908705e+00 4.1336908705e+00 0.0000000000e+00 0.0000e+00 1.0000e+00
       25  2    1    2    0    0 +0.0000000000e+00 +0.0000000000e+00 +9.4084505146e+02 9.4911243320e+02 1.2500000000e+02 0.0000e+00 0.0000e+00
      -15  1    3    3    0    0 +3.3985632949e+01 -2.8697142225e+01 +3.5291439098e+02 3.5571094207e+02 1.7770000000e+00 0.0000e+00 -1.0000e+00
       15  1    3    3    0    0 +1.4251163755e+01 +2.2198872911e+01 +1.1637764363e+02 1.1934319961e+02 1.7770000000e+00 0.0000e+00 -1.0000e+00
       22  1    3    3    0    0 -4.8236796704e+01 +6.4982693139e+00 +4.7155301691e+02 4.7405829158e+02 0.0000000000e+00 0.0000e+00 -1.0000e+00
<mgrwt>
<rscale>  2 0.12500000E+03</rscale>
<asrwt>0</asrwt>
<pdfrwt beam="1">  1       21 0.13896731E+00 0.12500000E+03</pdfrwt>
<pdfrwt beam="2">  1       21 0.60789637E-03 0.12500000E+03</pdfrwt>
<totfact> 0.22765486E+06</totfact>
</mgrwt>
</event>
<event>
 6      0 +9.8758382e+01 1.25000000e+02 7.54677100e-03 1.12640300e-01
       21 -1    0    0  502  501 +0.0000000000e+00 +0.0000000000e+00 +4.7900584182e+01 4.7900584182e+01 0.0000000000e+00 0.0000e+00 1.0000e+00
       21 -1    0    0  501  502 -0.0000000000e+00 -0.0000000000e+00 -8.1549109823e+01 8.1549109823e+01 0.0000000000e+00 0.0000e+00 1.0000e+00
       25  2    1    2    0    0 +0.0000000000e+00 +0.0000000000e+00 -3.3648525641e+01 1.2944969400e+02 1.2500000000e+02 0.0000e+00 0.0000e+00
      -15  1    3    3    0    0 -2.4559073373e+01 +1.9328161534e+01 -5.9935769810e+01 6.7617898111e+01 1.7770000000e+00 0.0000e+00 -1.0000e+00
       15  1    3    3    0    0 +2.5385317713e+01 +3.3287325318e+00 -1.8102170409e+00 2.5727989241e+01 1.7770000000e+00 0.0000e+00 -1.0000e+00
       22  1    3    3    0    0 -8.2624434040e-01 -2.2656894066e+01 +2.8097461209e+01 3.6103806652e+01 0.0000000000e+00 0.0000e+00 -1.0000e+00
<mgrwt>
<rscale>  2 0.12500000E+03</rscale>
<asrwt>0</asrwt>
<pdfrwt beam="1">  1       21 0.70442035E-02 0.12500000E+03</pdfrwt>
<pdfrwt beam="2">  1       21 0.11992516E-01 0.12500000E+03</pdfrwt>
<totfact> 0.88198075E+06</totfact>
</mgrwt>
</event>
<event>
 6      0 +9.8758382e+01 1.25000000e+02 7.54677100e-03 1.12640300e-01
       21 -1    0    0  502  501 +0.0000000000e+00 +0.0000000000e+00 +1.2258897632e+02 1.2258897632e+02 0.0000000000e+00 0.0000e+00 -1.0000e+00
       21 -1    0    0  501  502 -0.0000000000e+00 -0.0000000000e+00 -3.1864610646e+01 3.1864610646e+01 0.0000000000e+00 0.0000e+00 -1.0000e+00
       25  2    1    2    0    0 +0.0000000000e+00 +0.0000000000e+00 +9.0724365675e+01 1.5445358697e+02 1.2500000000e+02 0.0000e+00 0.0000e+00
      -15  1    3    3    0    0 +5.3403672200e+00 -1.8185784213e+01 -1.5034144212e+01 2.4257483189e+01 1.7770000000e+00 0.0000e+00 -1.0000e+00
       15  1    3    3    0    0 -2.8555326130e+01 -1.7150377609e+01 +4.0965324166e+01 5.2828568176e+01 1.7770000000e+00 0.0000e+00 -1.0000e+00
       22  1    3    3    0    0 +2.3214958910e+01 +3.5336161821e+01 +6.4793185719e+01 7.7367535601e+01 0.0000000000e+00 0.0000e+00 -1.0000e+00
<mgrwt>
<rscale>  2 0.12500000E+03</rscale>
<asrwt>0</asrwt>
<pdfrwt beam="1">  1       21 0.18027790E-01 0.12500000E+03</pdfrwt>
<pdfrwt beam="2">  1       21 0.46859722E-02 0.12500000E+03</pdfrwt>
<totfact> 0.83885354E+06</totfact>
</mgrwt>
</event>
<event>
 6      0 +9.8758382e+01 1.25000000e+02 7.54677100e-03 1.12640300e-01
       21 -1    0    0  502  501 +0.0000000000e+00 +0.0000000000e+00 +8.1234425264e+01 8.1234425264e+01 0.0000000000e+00 0.0000e+00 -1.0000e+00
       21 -1    0    0  501  502 -0.0000000000e+00 -0.0000000000e+00 -4.8086140664e+01 4.8086140664e+01 0.0000000000e+00 0.0000e+00 -1.0000e+00
       25  2    1    2    0    0 +0.0000000000e+00 +0.0000000000e+00 +3.3148284600e+01 1.2932056593e+02 1.2500000000e+02 0.0000e+00 0.0000e+00
      -15  1    3    3    0    0 -2.9949435540e+01 -1.6931281996e+01 -8.3820362071e+00 3.5454946893e+01 1.7770000000e+00 0.0000e+00 -1.0000e+00
       15  1    3    3    0    0 -1.5603363155e+01 +3.9507231139e+00 -1.3625062108e+01 2.1163014939e+01 1.7770000000e+00 0.0000e+00 -1.0000e+00
       22  1    3    3    0    0 +4.5552798695e+01 +1.2980558882e+01 +5.5155382914e+01 7.2702604095e+01 0.0000000000e+00 0.0000e+00 -1.0000e+00
<mgrwt>
<rscale>  2 0.12500000E+03</rscale>
<asrwt>0</asrwt>
<pdfrwt beam="1">  1       21 0.11946239E-01 0.12500000E+03</pdfrwt>
<pdfrwt beam="2">  1       21 0.70714912E-02 0.12500000E+03</pdfrwt>
<totfact> 0.88221461E+06</totfact>
</mgrwt>
</event>
<event>
 6      0 +9.8758382e+01 1.25000000e+02 7.54677100e-03 1.12640300e-01
       21 -1    0    0  502  501 +0.0000000000e+00 +0.0000000000e+00 +5.7242630568e+01 5.7242630568e+01 0.0000000000e+00 0.0000e+00 1.0000e+00
       21 -1    0    0  501  502 -0.0000000000e+00 -0.0000000000e+00 -6.8240225183e+01 6.8240225183e+01 0.0000000000e+00 0.0000e+00 1.0000e+00
       25  2    1    2    0    0 +0.0000000000e+00 +0.0000000000e+00 -1.0997594615e+01 1.2548285575e+02 1.2500000000e+02 0.0000e+00 0.0000e+00
      -15  1    3    3    0    0 -1.0663493722e+01 -8.1864834923e+00 -1.3514971021e+01 1.9145254792e+01 1.7770000000e+00 0.0000e+00 -1.0000e+00
       15  1    3    3    0    0 +5.7937807075e+01 +6.8589732178e+00 -4.4289586578e+00 5.8537239481e+01 1.7770000000e+00 0.0000e+00 -1.0000e+00
       22  1    3    3    0    0 -4.7274313353e+01 +1.3275102746e+00 +6.9463350645e+00 4.7800361477e+01 0.0000000000e+00 0.0000e+00 -1.0000e+00
<mgrwt>
<rscale>  2 0.12500000E+03</rscale>
<asrwt>0</asrwt>
<pdfrwt beam="1">  1       21 0.84180339E-02 0.12500000E+03</pdfrwt>
<pdfrwt beam="2">  1       21 0.10035327E-01 0.12500000E+03</pdfrwt>
<totfact> 0.88906643E+06</totfact>
</mgrwt>
</event>
<event>
 6      0 +9.8758382e+01 1.25000000e+02 7.54677100e-03 1.12640300e-01
       21 -1    0    0  502  501 +0.0000000000e+00 +0.0000000000e+00 +4.6808082487e+02 4.6808082487e+02 0.0000000000e+00 0.0000e+00 -1.0000e+00
       21 -1    0    0  501  502 -0.0000000000e+00 -0.0000000000e+00 -8.3452467874e+00 8.3452467874e+00 0.0000000000e+00 0.0000e+00 -1.0000e+00
       25  2    1    2    0    0 +0.0000000000e+00 +0.0000000000e+00 +4.5973557808e+02 4.7642607166e+02 1.2500000000e+02 0.0000e+00 0.0000e+00
      -15  1    3    3    0    0 +3.1068952518e-01 +3.8138846465e+01 +2.7907001553e+02 2.8166984118e+02 1.7770000000e+00 0.0000e+00 -1.0000e+00
       15  1    3    3    0    0 -2.5685102997e+01 -8.2796393639e+00 +3.6922390201e+01 4.5767866140e+01 1.7770000000e+00 0.0000e+00 -1.0000e+00
       22  1    3    3    0    0 +2.5374413472e+01 -2.9859207101e+01 +1.4374317228e+02 1.4898836426e+02 0.0000000000e+00 0.0000e+00 -1.0000e+00
<mgrwt>
<rscale>  2 0.12500000E+03</rscale>
<asrwt>0</asrwt>
<pdfrwt beam="1">  1       21 0.68835398E-01 0.12500000E+03</pdfrwt>
<pdfrwt beam="2">  1       21 0.12272425E-02 0.12500000E+03</pdfrwt>
<totfact> 0.47133271E+06</totfact>
</mgrwt>
</event>
<event>
 6      0 +9.8758382e+01 1.25000000e+02 7.54677100e-03 1.12640300e-01
       21 -1    0    0  502  501 +0.0000000000e+00 +0.0000000000e+00 +2.1144447247e+00 2.1144447247e+00 0.0000000000e+00 0.0000e+00 1.0000e+00
       21 -1    0    0  501  502 -0.0000000000e+00 -0.0000000000e+00 -1.8474117362e+03 1.8474117362e+03 0.0000000000e+00 0.0000e+00 1.0000e+00
       25  2    1    2    0    0 +0.0000000000e+00 +0.0000000000e+00 -1.8452972915e+03 1.8495261809e+03 1.2500000000e+02 0.0000e+00 0.0000e+00
      -15  1    3    3    0    0 +1.4795897069e+01 -8.1438020967e-01 -2.6690794506e+02 2.6732487847e+02 1.7770000000e+00 0.0000e+00 -1.0000e+00
       15  1    3    3    0    0 +3.3315920213e+00 -4.7364593956e+01 -1.1050632723e+03 1.1060843087e+03 1.7770000000e+00 0.0000e+00 -1.0000e+00
       22  1    3    3    0    0 -1.8127489091e+01 +4.8178974166e+01 -4.7332608488e+02 4.7611700457e+02 0.0000000000e+00 0.0000e+00 -1.0000e+00
<mgrwt>
<rscale>  2 0.12500000E+03</rscale>
<asrwt>0</asrwt>
<pdfrwt beam="1">  1       21 0.31094798E-03 0.12500000E+03</pdfrwt>
<pdfrwt beam="2">  1       21 0.27167800E+00 0.12500000E+03</pdfrwt>
<totfact> 0.65959291E+05</totfact>
</mgrwt>
</event>
<event>
 6      0 +9.8758382e+01 1.25000000e+02 7.54677100e-03 1.12640300e-01
       21 -1    0    0  502  501 +0.0000000000e+00 +0.0000000000e+00 +2.2349688942e+02 2.2349688942e+02 0.0000000000e+00 0.0000e+00 -1.0000e+00
       21 -1    0    0  501  502 -0.0000000000e+00 -0.0000000000e+00 -1.7477871885e+01 1.7477871885e+01 0.0000000000e+00 0.0000e+00 -1.0000e+00
       25  2    1    2    0    0 +0.0000000000e+00 +0.0000000000e+00 +2.0601901753e+02 2.4097476130e+02 1.2500000000e+02 0.0000e+00 0.0000e+00
      -15  1    3    3    0    0 +2.0034969323e+01 -2.8186897781e+01 +3.1862477348e+01 4.7056098373e+01 1.7770000000e+00 0.0000e+00 -1.0000e+00
       15  1    3    3    0    0 +1.2417934508e+01 +2.8554041836e+01 +1.5065185406e+02 1.5384627803e+02 1.7770000000e+00 0.0000e+00 -1.0000e+00
       22  1    3    3    0    0 -3.2452903831e+01 -3.6714405465e-01 +2.3504686123e+01 4.0072384900e+01 0.0000000000e+00 0.0000e+00 -1.0000e+00
<mgrwt>
<rscale>  2 0.12500000E+03</rscale>
<asrwt>0</asrwt>
<pdfrwt beam="1">  1       21 0.32867188E-01 0.12500000E+03</pdfrwt>
<pdfrwt beam="2">  1       21 0.25702754E-02 0.12500000E+03</pdfrwt>
<totfact> 0.71177986E+06</totfact>
</mgrwt>
</event>
<event>
 6      0 +9.8758382e+01 1.25000000e+02 7.54677100e-03 1.12640300e-01
       21 -1    0    0  502  501 +0.0000000000e+00 +0.0000000000e+00 +8.5055576054e+01 8.5055576054e+01 0.0000000000e+00 0.0000e+00 -1.0000e+00
       21 -1    0    0  501  502 -0.0000000000e+00 -0.0000000000e+00 -4.5925854379e+01 4.5925854379e+01 0.0000000000e+00 0.0000e+00 -1.0000e+00
       25  2    1    2    0    0 +0.0000000000e+00 +0.0000000000e+00 +3.9129721675e+01 1.3098143043e+02 1.2500000000e+02 0.0000e+00 0.0000e+00
      -15  1    3    3    0    0 +7.9116223739e+00 -5.1303773072e+01 +2.5591625521e+01 5.7903021733e+01 1.7770000000e+00 0.0000e+00 -1.0000e+00
       15  1    3    3    0    0 +1.2541310799e+01 +3.2637709988e+00 -9.3407608106e+00 1.6073089908e+01 1.7770000000e+00 0.0000e+00 -1.0000e+00
       22  1    3    3    0    0 -2.0452933172e+01 +4.8040002073e+01 +2.2878856966e+01 5.7005318792e+01 0.0000000000e+00 0.0000e+00 -1.0000e+00
<mgrwt>
<rscale>  2 0.12500000E+03</rscale>
<asrwt>0</asrwt>
<pdfrwt beam="1">  1       21 0.12508173E-01 0.12500000E+03</pdfrwt>
<pdfrwt beam="2">  1       21 0.67538021E-02 0.12500000E+03</pdfrwt>
<totfact> 0.87919440E+06</totfact>
</mgrwt>
</event>
<event>
 6      0 +9.8758382e+01 1.25000000e+02 7.54677100e-03 1.12640300e-01
       21 -1    0    0  502  501 +0.0000000000e+00 +0.0000000000e+00 +5.7356995662e+01 5.7356995662e+01 0.0000000000e+00 0.0000e+00 -1.0000e+00
       21 -1    0    0  501  502 -0.0000000000e+00 -0.0000000000e+00 -6.8104159831e+01 6.8104159831e+01 0.0000000000e+00 0.0000e+00 -1.0000e+00
       25  2    1    2    0    0 +0.0000000000e+00 +0.0000000000e+00 -1.0747164169e+01 1.2546115549e+02 1.2500000000e+02 0.0000e+00 0.0000e+00
      -15  1    3    3    0    0 -1.0657546011e+01 +4.0384673930e+01 -1.7292487952e+01 4.5240391731e+01 1.7770000000e+00 0.0000e+00 -1.0000e+00
       15  1    3    3    0    0 -1.1345620156e+01 +9.5003011654e-01 +2.6822307152e+01 2.9192799521e+01 1.7770000000e+00 0.0000e+00 -1.0000e+00
       22  1    3    3    0    0 +2.2003166166e+01 -4.1334704047e+01 -2.0276983370e+01 5.1027964241e+01 0.0000000000e+00 0.0000e+00 -1.0000e+00
<mgrwt>
<rscale>  2 0.12500000E+03</rscale>
<asrwt>0</asrwt>
<pdfrwt beam="1">  1       21 0.84348524E-02 0.12500000E+03</pdfrwt>
<pdfrwt beam="2">  1       21 0.10015318E-01 0.12500000E+03</pdfrwt>
<totfact> 0.88910709E+06</totfact>
</mgrwt>
</event>
<event>
 6      0 +9.8758382e+01 1.25000000e+02 7.54677100e-03 1.12640300e-01
       21 -1    0    0  502  501 +0.0000000000e+00 +0.0000000000e+00 +6.5597011402e+01 6.5597011402e+01 0.0000000000e+00 0.0000e+00 1.0000e+00
       21 -1    0    0  501  502 -0.0000000000e+00 -0.0000000000e+00 -5.9549206839e+01 5.9549206839e+01 0.0000000000e+00 0.0000e+00 1.0000e+00
       25  2    1    2    0    0 +0.0000000000e+00 +0.0000000000e+00 +6.0478045621e+00 1.2514621824e+02 1.2500000000e+02 0.0000e+00 0.0000e+00
      -15  1    3    3    0    0 -3.0099096102e+01 -1.4954354746e+01 +7.3134148135e+00 3.4441720010e+01 1.7770000000e+00 0.0000e+00 -1.0000e+00
       15  1    3    3    0    0 -2.2616964550e+01 -1.5753790785e+01 -9.3577110092e+00 2.9162192886e+01 1.7770000000e+00 0.0000e+00 -1.0000e+00
       22  1    3    3    0    0 +5.2716060652e+01 +3.0708145531e+01 +8.0921007584e+00 6.1542305346e+01 0.0000000000e+00 0.0000e+00 -1.0000e+00
<mgrwt>
<rscale>  2 0.12500000E+03</rscale>
<asrwt>0</asrwt>
<pdfrwt beam="1">  1       21 0.96466194E-02 0.12500000E+03</pdfrwt>
<pdfrwt beam="2">  1       21 0.87572363E-02 0.12500000E+03</pdfrwt>
<totfact> 0.88971557E+06</totfact>
</mgrwt>
</event>
<event>
 6      0 +9.8758382e+01 1.25000000e+02 7.54677100e-03 1.12640300e-01
       21 -1    0    0  502  501 +0.0000000000e+00 +0.0000000000e+00 +4.5341849138e+01 4.5341849138e+01 0.0000000000e+00 0.0000e+00 -1.0000e+00
       21 -1    0    0  501  502 -0.0000000000e+00 -0.0000000000e+00 -8.6151096045e+01 8.6151096045e+01 0.0000000000e+00 0.0000e+00 -1.0000e+00
       25  2    1    2    0    0 +0.0000000000e+00 +0.0000000000e+00 -4.0809246907e+01 1.3149294518e+02 1.2500000000e+02 0.0000e+00 0.0000e+00
      -15  1    3    3    0    0 +5.2927161770e+00 +3.4280947037e+01 +1.6267526111e+01 3.8353439339e+01 1.7770000000e+00 0.0000e+00 -1.0000e+00
       15  1    3    3    0    0 -2.4621805969e+01 +5.2076457468e+00 -6.3588177330e+00 2.6018170484e+01 1.7770000000e+00 0.0000e+00 -1.0000e+00
       22  1    3    3    0    0 +1.9329089792e+01 -3.9488592784e+01 -5.0717955287e+01 6.7121335361e+01 0.0000000000e+00 0.0000e+00 -1.0000e+00
<mgrwt>
<rscale>  2 0.12500000E+03</rscale>
<asrwt>0</asrwt>
<pdfrwt beam="1">  1       21 0.66679191E-02 0.12500000E+03</pdfrwt>
<pdfrwt beam="2">  1       21 0.12669279E-01 0.12500000E+03</pdfrwt>
<totfact> 0.87827185E+06</totfact>
</mgrwt>
</event>
<event>
 6      0 +9.8758382e+01 1.25000000e+02 7.54677100e-03 1.12640300e-01
       21 -1    0    0  502  501 +0.0000000000e+00 +0.0000000000e+00 +1.0094317970e+01 1.0094317970e+01 0.0000000000e+00 0.0000e+00 1.0000e+00
       21 -1    0    0  501  502 -0.0000000000e+00 -0.0000000000e+00 -3.8697512912e+02 3.8697512912e+02 0.0000000000e+00 0.0000e+00 1.0000e+00
       25  2    1    2    0    0 +0.0000000000e+00 +0.0000000000e+00 -3.7688081115e+02 3.9706944709e+02 1.2500000000e+02 0.0000e+00 0.0000e+00
      -15  1    3    3    0    0 -2.1574629547e+01 -2.8394306130e+01 -5.0146956777e+01 6.1559534304e+01 1.7770000000e+00 0.0000e+00 -1.0000e+00
       15  1    3    3    0    0 -8.7493272819e+00 -1.5739971525e+01 -1.4273711825e+02 1.4387960275e+02 1.7770000000e+00 0.0000e+00 -1.0000e+00
       22  1    3    3    0    0 +3.0323956828e+01 +4.4134277656e+01 -1.8399673613e+02 1.9163031004e+02 0.0000000000e+00 0.0000e+00 -1.0000e+00
<mgrwt>
<rscale>  2 0.12500000E+03</rscale>
<asrwt>0</asrwt>
<pdfrwt beam="1">  1       21 0.14844582E-02 0.12500000E+03</pdfrwt>
<pdfrwt beam="2">  1       21 0.56908121E-01 0.12500000E+03</pdfrwt>
<totfact> 0.53927472E+06</totfact>
</mgrwt>
</event>
<event>
 6      0 +9.8758382e+01 1.25000000e+02 7.54677100e-03 1.12640300e-01
       21 -1    0    0  502  501 +0.0000000000e+00 +0.0000000000e+00 +2.1760112206e+02 2.1760112206e+02 0.0000000000e+00 0.0000e+00 1.0000e+00
       21 -1    0    0  501  502 -0.0000000000e+00 -0.0000000000e+00 -1.7951423977e+01 1.7951423977e+01 0.0000000000e+00 0.0000e+00 1.0000e+00
       25  2    1    2    0    0 +0.0000000000e+00 +0.0000000000e+00 +1.9964969808e+02 2.3555254604e+02 1.2500000000e+02 0.0000e+00 0.0000e+00
      -15  1    3    3    0    0 +3.7410483625e+01 +2.0171606579e+01 +7.3571669724e+01 8.4984623974e+01 1.7770000000e+00 0.0000e+00 -1.0000e+00
       15  1    3    3    0    0 +2.0485065741e+01 +1.0359859669e+00 +2.9019319428e+01 3.5580750616e+01 1.7770000000e+00 0.0000e+00 -1.0000e+00
       22  1    3    3    0    0 -5.7895549366e+01 -2.1207592546e+01 +9.7058708912e+01 1.1498717143e+02 0.0000000000e+00 0.0000e+00 -1.0000e+00
<mgrwt>
<rscale>  2 0.12500000E+03</rscale>
<asrwt>0</asrwt>
<pdfrwt beam="1">  1       21 0.32000163E-01 0.12500000E+03</pdfrwt>
<pdfrwt beam="2">  1       21 0.26399154E-02 0.12500000E+03</pdfrwt>
<totfact> 0.71895806E+06</totfact>
</mgrwt>
</event>
<event>
 6      0 +9.8758382e+01 1.25000000e+02 7.54677100e-03 1.12640300e-01
       21 -1    0    0  502  501 +0.0000000000e+00 +0.0000000000e+00 +3.8692134177e+01 3.8692134177e+01 0.0000000000e+00 0.0000e+00 1.0000e+00
       21 -1    0    0  501  502 -0.0000000000e+00 -0.0000000000e+00 -1.0095721218e+02 1.0095721218e+02 0.0000000000e+00 0.0000e+00 1.0000e+00
       25  2    1    2    0    0 +0.0000000000e+00 +0.0000000000e+00 -6.2265078008e+01 1.3964934636e+02 1.2500000000e+02 0.0000e+00 0.0000e+00
      -15  1    3    3    0    0 +2.6540238466e+01 +2.3663692001e+01 -1.6330395424e+01 3.9168790136e+01 1.7770000000e+00 0.0000e+00 -1.0000e+00
       15  1    3    3    0    0 +1.1465222678e+01 -2.4524882370e+01 -5.5063528340e+01 6.1384615895e+01 1.7770000000e+00 0.0000e+00 -1.0000e+00
       22  1    3    3    0    0 -3.8005461144e+01 +8.6119036849e-01 +9.1288457552e+00 3.9095940332e+01 0.0000000000e+00 0.0000e+00 -1.0000e+00
<mgrwt>
<rscale>  2 0.12500000E+03</rscale>
<asrwt>0</asrwt>
<pdfrwt beam="1">  1       21 0.56900197E-02 0.12500000E+03</pdfrwt>
<pdfrwt beam="2">  1       21 0.14846649E-01 0.12500000E+03</pdfrwt>
<totfact> 0.86400912E+06</totfact>
</mgrwt>
</event>
<event>
 6      0 +9.8758382e+01 1.25000000e+02 7.54677100e-03 1.12640300e-01
       21 -1    0    0  502  501 +0.0000000000e+00 +0.0000000000e+00 +1.8576996975e+02 1.8576996975e+02 0.0000000000e+00 0.0000e+00 1.0000e+00
       21 -1    0    0  501  502 -0.0000000000e+00 -0.0000000000e+00 -2.1027349066e+01 2.1027349066e+01 0.0000000000e+00 0.0000e+00 1.0000e+00
       25  2    1    2    0    0 +0.0000000000e+00 +0.0000000000e+00 +1.6474262069e+02 2.0679731882e+02 1.2500000000e+02 0.0000e+00 0.0000e+00
      -15  1    3    3    0    0 -3.0265336637e+01 +5.0100590714e+00 +2.6677675987e+00 3.0844221608e+01 1.7770000000e+00 0.0000e+00 -1.0000e+00
       15  1    3    3    0    0 -1.7534892532e+01 -5.2753723399e+00 +2.7020302390e+01 3.2688782169e+01 1.7770000000e+00 0.0000e+00 -1.0000e+00
       22  1    3    3    0    0 +4.7800229169e+01 +2.6531326855e-01 +1.3505455071e+02 1.4326431505e+02 0.0000000000e+00 0.0000e+00 -1.0000e+00
<mgrwt>
<rscale>  2 0.12500000E+03</rscale>
<asrwt>0</asrwt>
<pdfrwt beam="1">  1       21 0.27319112E-01 0.12500000E+03</pdfrwt>
<pdfrwt beam="2">  1       21 0.30922573E-02 0.12500000E+03</pdfrwt>
<totfact> 0.75838627E+06</totfact>
</mgrwt>
</event>
<event>
 6      0 +9.8758382e+01 1.25000000e+02 7.54677100e-03 1.12640300e-01
       21 -1    0    0  502  501 +0.0000000000e+00 +0.0000000000e+00 +4.9223881837e+01 4.9223881837e+01 0.0000000000e+00 0.0000e+00 1.0000e+00
       21 -1    0    0  501  502 -0.0000000000e+00 -0.0000000000e+00 -7.9356805156e+01 7.9356805156e+01 0.0000000000e+00 0.0000e+00 1.0000e+00
       25  2    1    2    0    0 +0.0000000000e+00 +0.0000000000e+00 -3.0132923319e+01 1.2858068699e+02 1.2500000000e+02 0.0000e+00 0.0000e+00
      -15  1    3    3    0    0 -9.0919220267e+00 +2.3078626590e+00 -5.0038540562e-01 9.5601982588e+00 1.7770000000e+00 0.0000e+00 -1.0000e+00
       15  1    3    3    0    0 +2.2306584307e+01 +5.3244746847e+01 -9.8605483968e+00 5.8591594226e+01 1.7770000000e+00 0.0000e+00 -1.0000e+00
       22  1    3    3    0    0 -1.3214662280e+01 -5.5552609506e+01 -1.9771989518e+01 6.0428894509e+01 0.0000000000e+00 0.0000e+00 -1.0000e+00
<mgrwt>
<rscale>  2 0.12500000E+03</rscale>
<asrwt>0</asrwt>
<pdfrwt beam="1">  1       21 0.72388063E-02 0.12500000E+03</pdfrwt>
<pdfrwt beam="2">  1       21 0.11670118E-01 0.12500000E+03</pdfrwt>
<totfact> 0.88354549E+06</totfact>
</mgrwt>
</event>
<event>
 6      0 +9.8758382e+01 1.25000000e+02 7.54677100e-03 1.12640300e-01
       21 -1    0    0  502  501 +0.0000000000e+00 +0.0000000000e+00 +4.7183476695e+01 4.7183476695e+01 0.0000000000e+00 0.0000e+00 1.0000e+00
       21 -1    0    0  501  502 -0.0000000000e+00 -0.0000000000e+00 -8.2788515676e+01 8.2788515676e+01 0.0000000000e+00 0.0000e+00 1.0000e+00
       25  2    1    2    0    0 +0.0000000000e+00 +0.0000000000e+00 -3.5605038981e+01 1.2997199237e+02 1.2500000000e+02 0.0000e+00 0.0000e+00
      -15  1    3    3    0    0 -2.4362373406e+00 +2.2945596104e+01 -5.4897671059e+01 5.9576401785e+01 1.7770000000e+00 0.0000e+00 -1.0000e+00
       15  1    3    3    0    0 +1.6702192219e+01 -1.9771912365e+01 -1.7171815922e+01 3.1111424502e+01 1.7770000000e+00 0.0000e+00 -1.0000e+00
       22  1    3    3    0    0 -1.4265954878e+01 -3.1736837385e+00 +3.6464447999e+01 3.9284166084e+01 0.0000000000e+00 0.0000e+00 -1.0000e+00
<mgrwt>
<rscale>  2 0.12500000E+03</rscale>
<asrwt>0</asrwt>
<pdfrwt beam="1">  1       21 0.69387467E-02 0.12500000E+03</pdfrwt>
<pdfrwt beam="2">  1       21 0.12174782E-01 0.12500000E+03</pdfrwt>
<totfact> 0.88103076E+06</totfact>
</mgrwt>
</event>
<event>
 6      0 +9.8758382e+01 1.25000000e+02 7.54677100e-03 1.12640300e-01
       21 -1    0    0  502  501 +0.0000000000e+00 +0.0000000000e+00 +2.4721014020e+02 2.4721014020e+02 0.0000000000e+00 0.0000e+00 -1.0000e+00
       21 -1    0    0  501  502 -0.0000000000e+00 -0.0000000000e+00 -1.5801334026e+01 1.5801334026e+01 0.0000000000e+00 0.0000e+00 -1.0000e+00
       25  2    1    2    0    0 +0.0000000000e+00 +0.0000000000e+00 +2.3140880617e+02 2.6301147423e+02 1.2500000000e+02 0.0000e+00 0.0000e+00
      -15  1    3    3    0    0 -1.4649596308e+01 -1.8263639683e+01 +2.5287226158e+01 3.4507575142e+01 1.7770000000e+00 0.0000e+00 -1.0000e+00
       15  1    3    3    0    0 -3.3198591552e+01 -1.4393576058e+01 +4.8233756387e+01 6.0323913143e+01 1.7770000000e+00 0.0000e+00 -1.0000e+00
       22  1    3    3    0    0 +4.7848187859e+01 +3.2657215741e+01 +1.5788782360e+02 1.6817998591e+02 0.0000000000e+00 0.0000e+00 -1.0000e+00
<mgrwt>
<rscale>  2 0.12500000E+03</rscale>
<asrwt>0</asrwt>
<pdfrwt beam="1">  1       21 0.36354430E-01 0.12500000E+03</pdfrwt>
<pdfrwt beam="2">  1       21 0.23237257E-02 0.12500000E+03</pdfrwt>
<totfact> 0.68359093E+06</totfact>
</mgrwt>
</event>
<event>
 6      0 +9.8758382e+01 1.25000000e+02 7.54677100e-03 1.12640300e-01
       21 -1    0    0  502  501 +0.0000000000e+00 +0.0000000000e+00 +8.3676056126e+02 8.3676056126e+02 0.0000000000e+00 0.0000e+00 1.0000e+00
       21 -1    0    0  501  502 -0.0000000000e+00 -0.0000000000e+00 -4.6683008029e+00 4.6683008029e+00 0.0000000000e+00 0.0000e+00 1.0000e+00
       25  2    1    2    0    0 +0.0000000000e+00 +0.0000000000e+00 +8.3209226046e+02 8.4142886207e+02 1.2500000000e+02 0.0000e+00 0.0000e+00
      -15  1    3    3    0    0 +1.1996293723e+01 +2.4598119540e+01 +2.8140851023e+02 2.8274173005e+02 1.7770000000e+00 0.0000e+00 -1.0000e+00
       15  1    3    3    0    0 +7.9307109410e+00 +8.3228189180e+00 +4.6036601858e+02 4.6051296864e+02 1.7770000000e+00 0.0000e+00 -1.0000e+00
       22  1    3    3    0    0 -1.9927004664e+01 -3.2920938458e+01 +9.0317731460e+01 9.8174163199e+01 0.0000000000e+00 0.0000e+00 -1.0000e+00
<mgrwt>
<rscale>  2 0.12500000E+03</rscale>
<asrwt>0</asrwt>
<pdfrwt beam="1">  1       21 0.12305292E+00 0.12500000E+03</pdfrwt>
<pdfrwt beam="2">  1       21 0.68651540E-03 0.12500000E+03</pdfrwt>
<totfact> 0.26606845E+06</totfact>
</mgrwt>
</event>
<event>
 6      0 +9.8758382e+01 1.25000000e+02 7.54677100e-03 1.12640300e-01
       21 -1    0    0  502  501 +0.0000000000e+00 +0.0000000000e+00 +3.8854469692e+02 3.8854469692e+02 0.0000000000e+00 0.0000e+00 -1.0000e+00
       21 -1    0    0  501  502 -0.0000000000e+00 -0.0000000000e+00 -1.0053540895e+01 1.0053540895e+01 0.0000000000e+00 0.0000e+00 -1.0000e+00
       25  2    1    2    0    0 +0.0000000000e+00 +0.0000000000e+00 +3.7849115602e+02 3.9859823781e+02 1.2500000000e+02 0.0000e+00 0.0000e+00
      -15  1    3    3    0    0 +1.3412856578e+01 -8.0307526757e+00 +4.0956711307e+01 4.3874909005e+01 1.7770000000e+00 0.0000e+00 -1.0000e+00
       15  1    3    3    0    0 -2.9826965859e+01 -1.0764891045e+01 +3.2545229374e+02 3.2699829358e+02 1.7770000000e+00 0.0000e+00 -1.0000e+00
       22  1    3    3    0    0 +1.6414109281e+01 +1.8795643721e+01 +1.2082150975e+01 2.7725035231e+01 0.0000000000e+00 0.0000e+00 -1.0000e+00
<mgrwt>
<rscale>  2 0.12500000E+03</rscale>
<asrwt>0</asrwt>
<pdfrwt beam="1">  1       21 0.57138916E-01 0.12500000E+03</pdfrwt>
<pdfrwt beam="2">  1       21 0.14784622E-02 0.12500000E+03</pdfrwt>
<totfact> 0.53785600E+06</totfact>
</mgrwt>
</event>
<event>
 6      0 +9.8758382e+01 1.25000000e+02 7.54677100e-03 1.12640300e-01
       21 -1    0    0  502  501 +0.0000000000e+00 +0.0000000000e+00 +6.2729306813e+01 6.2729306813e+01 0.0000000000e+00 0.0000e+00 -1.0000e+00
       21 -1    0    0  501  502 -0.0000000000e+00 -0.0000000000e+00 -6.2271531417e+01 6.2271531417e+01 0.0000000000e+00 0.0000e+00 -1.0000e+00
       25  2    1    2    0    0 +0.0000000000e+00 +0.0000000000e+00 +4.5777539544e-01 1.2500083823e+02 1.2500000000e+02 0.0000e+00 0.0000e+00
      -15  1    3    3    0    0 +5.0155204081e+01 +1.4045826927e+01 +2.3664599236e+01 5.7236358518e+01 1.7770000000e+00 0.0000e+00 -1.0000e+00
       15  1    3    3    0    0 +1.9886782708e-01 +7.2238714300e+00 -8.2135950869e+00 1.1083534640e+01 1.7770000000e+00 0.0000e+00 -1.0000e+00
       22  1    3    3    0    0 -5.0354071908e+01 -2.1269698356e+01 -1.4993228754e+01 5.6680945073e+01 0.0000000000e+00 0.0000e+00 -1.0000e+00
<mgrwt>
<rscale>  2 0.12500000E+03</rscale>
<asrwt>0</asrwt>
<pdfrwt beam="1">  1       21 0.92248981E-02 0.12500000E+03</pdfrwt>
<pdfrwt beam="2">  1       21 0.91575781E-02 0.12500000E+03</pdfrwt>
<totfact> 0.89002082E+06</totfact>
</mgrwt>
</event>
<event>
 6      0 +9.8758382e+01 1.25000000e+02 7.54677100e-03 1.12640300e-01
       21 -1    0    0  502  501 +0.0000000000e+00 +0.0000000000e+00 +2.0182943176e+02 2.0182943176e+02 0.0000000000e+00 0.0000e+00 -1.0000e+00
       21 -1    0    0  501  502 -0.0000000000e+00 -0.0000000000e+00 -1.9354213931e+01 1.9354213931e+01 0.0000000000e+00 0.0000e+00 -1.0000e+00
       25  2    1    2    0    0 +0.0000000000e+00 +0.0000000000e+00 +1.8247521783e+02 2.2118364570e+02 1.2500000000e+02 0.0000e+00 0.0000e+00
      -15  1    3    3    0    0 -2.5906846989e+01 -1.5207871874e+01 +7.5741635757e+01 8.1500903087e+01 1.7770000000e+00 0.0000e+00 -1.0000e+00
       15  1    3    3    0    0 -1.0877451902e+01 +3.6130333636e+01 +1.9015525674e+01 4.2290281557e+01 1.7770000000e+00 0.0000e+00 -1.0000e+00
       22  1    3    3    0    0 +3.6784298891e+01 -2.0922461762e+01 +8.7718056381e+01 9.7392461034e+01 0.0000000000e+00 0.0000e+00 -1.0000e+00
<mgrwt>
<rscale>  2 0.12500000E+03</rscale>
<asrwt>0</asrwt>
<pdfrwt beam="1">  1       21 0.29680798E-01 0.12500000E+03</pdfrwt>
<pdfrwt beam="2">  1       21 0.28462080E-02 0.12500000E+03</pdfrwt>
<totfact> 0.73831076E+06</totfact>
</mgrwt>
</event>
<event>
 6      0 +9.8758382e+01 1.25000000e+02 7.54677100e-03 1.12640300e-01
       21 -1    0    0  502  501 +0.0000000000e+00 +0.0000000000e+00 +6.4109611810e+01 6.4109611810e+01 0.0000000000e+00 0.0000e+00 1.0000e+00
       21 -1    0    0  501  502 -0.0000000000e+00 -0.0000000000e+00 -6.0930801009e+01 6.0930801009e+01 0.0000000000e+00 0.0000e+00 1.0000e+00
       25  2    1    2    0    0 +0.0000000000e+00 +0.0000000000e+00 +3.1788108010e+00 1.2504041282e+02 1.2500000000e+02 0.0000e+00 0.0000e+00
      -15  1    3    3    0    0 -2.8754994771e+01 +2.2848977953e+01 -4.8223005851e+01 6.0642736911e+01 1.7770000000e+00 0.0000e+00 -1.0000e+00
       15  1    3    3    0    0 +1.6328145794e+01 -1.3843495703e+01 +1.9565565675e+01 2.9055460890e+01 1.7770000000e+00 0.0000e+00 1.0000e+00
       22  1    3    3    0    0 +1.2426848977e+01 -9.0054822497e+00 +3.1836250978e+01 3.5342215018e+01 0.0000000000e+00 0.0000e+00 -1.0000e+00
<mgrwt>
<rscale>  2 0.12500000E+03</rscale>
<asrwt>0</asrwt>
<pdfrwt beam="1">  1       21 0.94278841E-02 0.12500000E+03</pdfrwt>
<pdfrwt beam="2">  1       21 0.89604119E-02 0.12500000E+03</pdfrwt>
<totfact> 0.88993698E+06</totfact>
</mgrwt>
</event>
<event>
 6      0 +9.8758382e+01 1.25000000e+02 7.54677100e-03 1.12640300e-01
       21 -1    0    0  502  501 +0.0000000000e+00 +0.0000000000e+00 +6.8284747470e+01 6.8284747470e+01 0.0000000000e+00 0.0000e+00 -1.0000e+00
       21 -1    0    0  501  502 -0.0000000000e+00 -0.0000000000e+00 -5.7205307843e+01 5.7205307843e+01 0.0000000000e+00 0.0000e+00 -1.0000e+00
       25  2    1    2    0    0 +0.0000000000e+00 +0.0000000000e+00 +1.1079439627e+01 1.2549005531e+02 1.2500000000e+02 0.0000e+00 0.0000e+00
      -15  1    3    3    0    0 +1.9067939509e+01 -2.1805532328e+01 -3.4347316247e+01 4.4966247559e+01 1.7770000000e+00 0.0000e+00 -1.0000e+00
       15  1    3    3    0    0 +1.1327080397e+01 -1.1436748937e+01 -4.9062498264e-01 1.6201864659e+01 1.7770000000e+00 0.0000e+00 -1.0000e+00
       22  1    3    3    0    0 -3.0395019906e+01 +3.3242281265e+01 +4.5917380856e+01 6.4321943095e+01 0.0000000000e+00 0.0000e+00 -1.0000e+00
<mgrwt>
<rscale>  2 0.12500000E+03</rscale>
<asrwt>0</asrwt>
<pdfrwt beam="1">  1       21 0.10041875E-01 0.12500000E+03</pdfrwt>
<pdfrwt beam="2">  1       21 0.84125452E-02 0.12500000E+03</pdfrwt>
<totfact> 0.88905296E+06</totfact>
</mgrwt>
</event>
<event>
 6      0 +9.8758382e+01 1.25000000e+02 7.54677100e-03 1.12640300e-01
       21 -1    0    0  502  501 +0.0000000000e+00 +0.0000000000e+00 +1.2105570951e+01 1.2105570951e+01 0.0000000000e+00 0.0000e+00 -1.0000e+00
       21 -1    0    0  501  502 -0.0000000000e+00 -0.0000000000e+00 -3.2268201275e+02 3.2268201275e+02 0.0000000000e+00 0.0000e+00 -1.0000e+00
       25  2    1    2    0    0 +0.0000000000e+00 +0.0000000000e+00 -3.1057644180e+02 3.3478758370e+02 1.2500000000e+02 0.0000e+00 0.0000e+00
      -15  1    3    3    0    0 +1.4028206180e+01 -2.8608856065e+01 -3.5603731591e+01 4.7812557410e+01 1.7770000000e+00 0.0000e+00 -1.0000e+00
       15  1    3    3    0    0 -4.5107470763e+01 +1.7029530308e+01 -1.4398353409e+02 1.5185224608e+02 1.7770000000e+00 0.0000e+00 -1.0000e+00
       22  1    3    3    0    0 +3.1079264582e+01 +1.1579325757e+01 -1.3098917613e+02 1.3512278022e+02 0.0000000000e+00 0.0000e+00 -1.0000e+00
<mgrwt>
<rscale>  2 0.12500000E+03</rscale>
<asrwt>0</asrwt>
<pdfrwt beam="1">  1       21 0.17802309E-02 0.12500000E+03</pdfrwt>
<pdfrwt beam="2">  1       21 0.47453240E-01 0.12500000E+03</pdfrwt>
<totfact> 0.60113435E+06</totfact>
</mgrwt>
</event>
<event>
 6      0 +9.8758382e+01 1.25000000e+02 7.54677100e-03 1.12640300e-01
       21 -1    0    0  502  501 +0.0000000000e+00 +0.0000000000e+00 +8.4983306876e+00 8.4983306876e+00 0.0000000000e+00 0.0000e+00 -1.0000e+00
       21 -1    0    0  501  502 -0.0000000000e+00 -0.0000000000e+00 -4.5964909387e+02 4.5964909387e+02 0.0000000000e+00 0.0000e+00 -1.0000e+00
       25  2    1    2    0    0 +0.0000000000e+00 +0.0000000000e+00 -4.5115076319e+02 4.6814742456e+02 1.2500000000e+02 0.0000e+00 0.0000e+00
      -15  1    3    3    0    0 -2.5709533664e+01 -1.1960402826e+01 -2.8645624592e+02 2.8786172012e+02 1.7770000000e+00 0.0000e+00 -1.0000e+00
       15  1    3    3    0    0 -3.6806592332e+00 +8.9449505335e+00 -1.4371270255e+02 1.4404880422e+02 1.7770000000e+00 0.0000e+00 -1.0000e+00
       22  1    3    3    0    0 +2.9390192898e+01 +3.0154522922e+00 -2.0981814791e+01 3.6236900295e+01 0.0000000000e+00 0.0000e+00 -1.0000e+00
<mgrwt>
<rscale>  2 0.12500000E+03</rscale>
<asrwt>0</asrwt>
<pdfrwt beam="1">  1       21 0.12497539E-02 0.12500000E+03</pdfrwt>
<pdfrwt beam="2">  1       21 0.67595487E-01 0.12500000E+03</pdfrwt>
<totfact> 0.47792693E+06</totfact>
</mgrwt>
</event>
<event>
 6      0 +9.8758382e+01 1.25000000e+02 7.54677100e-03 1.12640300e-01
       21 -1    0    0  502  501 +0.0000000000e+00 +0.0000000000e+00 +4.9648729913e+01 4.9648729913e+01 0.0000000000e+00 0.0000e+00 -1.0000e+00
       21 -1    0    0  501  502 -0.0000000000e+00 -0.0000000000e+00 -7.8677742750e+01 7.8677742750e+01 0.0000000000e+00 0.0000e+00 -1.0000e+00
       25  2    1    2    0    0 +0.0000000000e+00 +0.0000000000e+00 -2.9029012837e+01 1.2832647266e+02 1.2500000000e+02 0.0000e+00 0.0000e+00
      -15  1    3    3    0    0 -3.8846651496e+01 -6.8301191833e+00 +2.8116365080e+00 3.9582519997e+01 1.7770000000e+00 0.0000e+00 -1.0000e+00
       15  1    3    3    0    0 +1.6763148952e+01 -3.2433114453e+01 -2.1906219526e+01 4.2613967885e+01 1.7770000000e+00 0.0000e+00 -1.0000e+00
       22  1    3    3    0    0 +2.2083502543e+01 +3.9263233636e+01 -9.9344298192e+00 4.6129984782e+01 0.0000000000e+00 0.0000e+00 -1.0000e+00
<mgrwt>
<rscale>  2 0.12500000E+03</rscale>
<asrwt>0</asrwt>
<pdfrwt beam="1">  1       21 0.73012839E-02 0.12500000E+03</pdfrwt>
<pdfrwt beam="2">  1       21 0.11570256E-01 0.12500000E+03</pdfrwt>
<totfact> 0.88399863E+06</totfact>
</mgrwt>
</event>
<event>
 6      0 +9.8758382e+01 1.25000000e+02 7.54677100e-03 1.12640300e-01
       21 -1    0    0  502  501 +0.0000000000e+00 +0.0000000000e+00 +3.5640040731e+02 3.5640040731e+02 0.0000000000e+00 0.0000e+00 1.0000e+00
       21 -1    0    0  501  502 -0.0000000000e+00 -0.0000000000e+00 -1.0960284893e+01 1.0960284893e+01 0.0000000000e+00 0.0000e+00 1.0000e+00
       25  2    1    2    0    0 +0.0000000000e+00 +0.0000000000e+00 +3.4544012241e+02 3.6736069220e+02 1.2500000000e+02 0.0000e+00 0.0000e+00
      -15  1    3    3    0    0 +1.2372119287e+01 +4.2138107368e+01 +2.0425603196e+02 2.0893150492e+02 1.7770000000e+00 0.0000e+00 -1.0000e+00
       15  1    3    3    0    0 -1.0917768526e+01 +3.6924860393e-01 +9.4300203135e-02 1.1068000526e+01 1.7770000000e+00 0.0000e+00 -1.0000e+00
       22  1    3    3    0    0 -1.4543507604e+00 -4.2507355972e+01 +1.4108979021e+02 1.4736118671e+02 0.0000000000e+00 0.0000e+00 -1.0000e+00
<mgrwt>
<rscale>  2 0.12500000E+03</rscale>
<asrwt>0</asrwt>
<pdfrwt beam="1">  1       21 0.52411817E-01 0.12500000E+03</pdfrwt>
<pdfrwt beam="2">  1       21 0.16118068E-02 0.12500000E+03</pdfrwt>
<totfact> 0.56780812E+06</totfact>
</mgrwt>
</event>
<event>
 6      0 +9.8758382e+01 1.25000000e+02 7.54677100e-03 1.12640300e-01
       21 -1    0    0  502  501 +0.0000000000e+00 +0.0000000000e+00 +6.7097016463e+02 6.7097016463e+02 0.0000000000e+00 0.0000e+00 -1.0000e+00
       21 -1    0    0  501  502 -0.0000000000e+00 -0.0000000000e+00 -5.8217938828e+00 5.8217938828e+00 0.0000000000e+00 0.0000e+00 -1.0000e+00
       25  2    1    2    0    0 +0.0000000000e+00 +0.0000000000e+00 +6.6514837075e+02 6.7679195852e+02 1.2500000000e+02 0.0000e+00 0.0000e+00
      -15  1    3    3    0    0 -2.6701460789e+01 -7.7425380518e+00 +3.8238993621e+01 4.7310604159e+01 1.7770000000e+00 0.0000e+00 -1.0000e+00
       15  1    3    3    0    0 +2.7760905199e+01 +1.8800097634e+01 +2.3211007861e+02 2.3452581489e+02 1.7770000000e+00 0.0000e+00 -1.0000e+00
       22  1    3    3    0    0 -1.0594444098e+00 -1.1057559583e+01 +3.9479929839e+02 3.9495553934e+02 0.0000000000e+00 0.0000e+00 -1.0000e+00
<mgrwt>
<rscale>  2 0.12500000E+03</rscale>
<asrwt>0</asrwt>
<pdfrwt beam="1">  1       21 0.98672030E-01 0.12500000E+03</pdfrwt>
<pdfrwt beam="2">  1       21 0.85614662E-03 0.12500000E+03</pdfrwt>
<totfact> 0.34116351E+06</totfact>
</mgrwt>
</event>
<event>
 6      0 +9.8758382e+01 1.25000000e+02 7.54677100e-03 1.12640300e-01
       21 -1    0    0  502  501 +0.0000000000e+00 +0.0000000000e+00 +2.5024211677e+02 2.5024211677e+02 0.0000000000e+00 0.0000e+00 -1.0000e+00
       21 -1    0    0  501  502 -0.0000000000e+00 -0.0000000000e+00 -1.5609882343e+01 1.5609882343e+01 0.0000000000e+00 0.0000e+00 -1.0000e+00
       25  2    1    2    0    0 +0.0000000000e+00 +0.0000000000e+00 +2.3463223443e+02 2.6585199911e+02 1.2500000000e+02 0.0000e+00 0.0000e+00
      -15  1    3    3    0    0 +4.8630087008e+01 -2.7820075352e+01 +9.3479201044e+01 1.0899706745e+02 1.7770000000e+00 0.0000e+00 -1.0000e+00
       15  1    3    3    0    0 -7.6334111574e+00 +2.4773995318e+01 +4.0364772372e+01 4.8005128762e+01 1.7770000000e+00 0.0000e+00 -1.0000e+00
       22  1    3    3    0    0 -4.0996675851e+01 +3.0460800341e+00 +1.0078826104e+02 1.0884980293e+02 0.0000000000e+00 0.0000e+00 -1.0000e+00
<mgrwt>
<rscale>  2 0.12500000E+03</rscale>
<asrwt>0</asrwt>
<pdfrwt beam="1">  1       21 0.36800309E-01 0.12500000E+03</pdfrwt>
<pdfrwt beam="2">  1       21 0.22955711E-02 0.12500000E+03</pdfrwt>
<totfact> 0.68007439E+06</totfact>
</mgrwt>
</event>
<event>
 6      0 +9.8758382e+01 1.25000000e+02 7.54677100e-03 1.12640300e-01
       21 -1    0    0  502  501 +0.0000000000e+00 +0.0000000000e+00 +2.6940665893e+02 2.6940665893e+02 0.0000000000e+00 0.0000e+00 1.0000e+00
       21 -1    0    0  501  502 -0.0000000000e+00 -0.0000000000e+00 -1.4499456010e+01 1.4499456010e+01 0.0000000000e+00 0.0000e+00 1.0000e+00
       25  2    1    2    0    0 +0.0000000000e+00 +0.0000000000e+00 +2.5490720292e+02 2.8390611494e+02 1.2500000000e+02 0.0000e+00 0.0000e+00
      -15  1    3    3    0    0 +1.6024172452e+01 +3.4269150105e+01 +9.4662634795e+01 1.0195744655e+02 1.7770000000e+00 0.0000e+00 -1.0000e+00
       15  1    3    3    0    0 +1.9342312913e+01 +5.5647472705e+00 +9.7822810037e+01 9.9887693805e+01 1.7770000000e+00 0.0000e+00 -1.0000e+00
       22  1    3    3    0    0 -3.5366485365e+01 -3.9833897376e+01 +6.2421758090e+01 8.2060974588e+01 0.0000000000e+00 0.0000e+00 -1.0000e+00
<mgrwt>
<rscale>  2 0.12500000E+03</rscale>
<asrwt>0</asrwt>
<pdfrwt beam="1">  1       21 0.39618623E-01 0.12500000E+03</pdfrwt>
<pdfrwt beam="2">  1       21 0.21322731E-02 0.12500000E+03</pdfrwt>
<totfact> 0.65827137E+06</totfact>
</mgrwt>
</event>
<event>
 6      0 +9.8758382e+01 1.25000000e+02 7.54677100e-03 1.12640300e-01
       21 -1    0    0  502  501 +0.0000000000e+00 +0.0000000000e+00 +1.3334183539e+02 1.3334183539e+02 0.0000000000e+00 0.0000e+00 -1.0000e+00
       21 -1    0    0  501  502 -0.0000000000e+00 -0.0000000000e+00 -2.9295006991e+01 2.9295006991e+01 0.0000000000e+00 0.0000e+00 -1.0000e+00
       25  2    1    2    0    0 +0.0000000000e+00 +0.0000000000e+00 +1.0404682840e+02 1.6263684238e+02 1.2500000000e+02 0.0000e+00 0.0000e+00
      -15  1    3    3    0    0 +2.4992064333e+01 +1.9244816514e+01 +5.6681536328e+01 6.4891606019e+01 1.7770000000e+00 0.0000e+00 -1.0000e+00
       15  1    3    3    0    0 -4.3840539564e+01 -3.6734542547e+01 +4.3194601852e+01 7.1696240373e+01 1.7770000000e+00 0.0000e+00 -1.0000e+00
       22  1    3    3    0    0 +1.8848475231e+01 +1.7489726033e+01 +4.1706902231e+00 2.6048995992e+01 0.0000000000e+00 0.0000e+00 -1.0000e+00
<mgrwt>
<rscale>  2 0.12500000E+03</rscale>
<asrwt>0</asrwt>
<pdfrwt beam="1">  1       21 0.19609093E-01 0.12500000E+03</pdfrwt>
<pdfrwt beam="2">  1       21 0.43080893E-02 0.12500000E+03</pdfrwt>
<totfact> 0.82549799E+06</totfact>
</mgrwt>
</event>
<event>
 6      0 +9.8758382e+01 1.25000000e+02 7.54677100e-03 1.12640300e-01
       21 -1    0    0  502  501 +0.0000000000e+00 +0.0000000000e+00 +4.0665265631e+02 4.0665265631e+02 0.0000000000e+00 0.0000e+00 -1.0000e+00
       21 -1    0    0  501  502 -0.0000000000e+00 -0.0000000000e+00 -9.6058637252e+00 9.6058637252e+00 0.0000000000e+00 0.0000e+00 -1.0000e+00
       25  2    1    2    0    0 +0.0000000000e+00 +0.0000000000e+00 +3.9704679258e+02 4.1625852003e+02 1.2500000000e+02 0.0000e+00 0.0000e+00
      -15  1    3    3    0    0 -1.6879056023e+01 -4.1871130924e+00 +1.5219781466e+02 1.5319845614e+02 1.7770000000e+00 0.0000e+00 -1.0000e+00
       15  1    3    3    0    0 +2.7595222332e+00 +1.3337878215e+01 +2.4582293373e+02 2.4620638991e+02 1.7770000000e+00 0.0000e+00 -1.0000e+00
       22  1    3    3    0    0 +1.4119533789e+01 -9.1507651230e+00 -9.7395579906e-01 1.6853673984e+01 0.0000000000e+00 0.0000e+00 -1.0000e+00
<mgrwt>
<rscale>  2 0.12500000E+03</rscale>
<asrwt>0</asrwt>
<pdfrwt beam="1">  1       21 0.59801850E-01 0.12500000E+03</pdfrwt>
<pdfrwt beam="2">  1       21 0.14126273E-02 0.12500000E+03</pdfrwt>
<totfact> 0.52180302E+06</totfact>
</mgrwt>
</event>
<event>
 6      0 +9.8758382e+01 1.25000000e+02 7.54677100e-03 1.12640300e-01
       21 -1    0    0  502  501 +0.0000000000e+00 +0.0000000000e+00 +7.4611204667e+01 7.4611204667e+01 0.0000000000e+00 0.0000e+00 -1.0000e+00
       21 -1    0    0  501  502 -0.0000000000e+00 -0.0000000000e+00 -5.2354737032e+01 5.2354737032e+01 0.0000000000e+00 0.0000e+00 -1.0000e+00
       25  2    1    2    0    0 +0.0000000000e+00 +0.0000000000e+00 +2.2256467635e+01 1.2696594170e+02 1.2500000000e+02 0.0000e+00 0.0000e+00
      -15  1    3    3    0    0 -4.3461109830e+01 -1.3626940557e+01 -1.4808217040e+01 4.7927054965e+01 1.7770000000e+00 0.0000e+00 -1.0000e+00
       15  1    3    3    0    0 -7.7537179229e+00 +1.6696387456e+01 +9.2889353211e+00 2.0696172209e+01 1.7770000000e+00 0.0000e+00 -1.0000e+00
       22  1    3    3    0    0 +5.1214827753e+01 -3.0694468988e+00 +2.7775749354e+01 5.8342714526e+01 0.0000000000e+00 0.0000e+00 -1.0000e+00
<mgrwt>
<rscale>  2 0.12500000E+03</rscale>
<asrwt>0</asrwt>
<pdfrwt beam="1">  1       21 0.10972236E-01 0.12500000E+03</pdfrwt>
<pdfrwt beam="2">  1       21 0.76992260E-02 0.12500000E+03</pdfrwt>
<totfact> 0.88639466E+06</totfact>
</mgrwt>
</event>
<event>
 6      0 +9.8758382e+01 1.25000000e+02 7.54677100e-03 1.12640300e-01
       21 -1    0    0  502  501 +0.0000000000e+00 +0.0000000000e+00 +2.2466172746e+02 2.2466172746e+02 0.0000000000e+00 0.0000e+00 -1.0000e+00
       21 -1    0    0  501  502 -0.0000000000e+00 -0.0000000000e+00 -1.7387251688e+01 1.7387251688e+01 0.0000000000e+00 0.0000e+00 -1.0000e+00
       25  2    1    2    0    0 +0.0000000000e+00 +0.0000000000e+00 +2.0727447577e+02 2.4204897915e+02 1.2500000000e+02 0.0000e+00 0.0000e+00
      -15  1    3    3    0    0 +2.4580860138e+01 -2.6698493375e+01 +1.6046670033e+01 3.9720040052e+01 1.7770000000e+00 0.0000e+00 -1.0000e+00
       15  1    3    3    0    0 -2.7044739128e+01 -1.0081381433e+01 +7.4332906987e+01 7.9759582222e+01 1.7770000000e+00 0.0000e+00 -1.0000e+00
       22  1    3    3    0    0 +2.4638789902e+00 +3.6779874807e+01 +1.1689489874e+02 1.2256935686e+02 0.0000000000e+00 0.0000e+00 -1.0000e+00
<mgrwt>
<rscale>  2 0.12500000E+03</rscale>
<asrwt>0</asrwt>
<pdfrwt beam="1">  1       21 0.33038488E-01 0.12500000E+03</pdfrwt>
<pdfrwt beam="2">  1       21 0.25569489E-02 0.12500000E+03</pdfrwt>
<totfact> 0.71036585E+06</totfact>
</mgrwt>
</event>
<event>
 6      0 +9.8758382e+01 1.25000000e+02 7.54677100e-03 1.12640300e-01
       21 -1    0    0  502  501 +0.0000000000e+00 +0.0000000000e+00 +3.4138901301e+01 3.4138901301e+01 0.0000000000e+00 0.0000e+00 -1.0000e+00
       21 -1    0    0  501  502 -0.0000000000e+00 -0.0000000000e+00 -1.1442225295e+02 1.1442225295e+02 0.0000000000e+00 0.0000e+00 -1.0000e+00
       25  2    1    2    0    0 +0.0000000000e+00 +0.0000000000e+00 -8.0283351645e+01 1.4856115425e+02 1.2500000000e+02 0.0000e+00 0.0000e+00
      -15  1    3    3    0    0 -1.9170826872e+01 -5.2407714814e+01 -2.6033132141e+01 6.1603334918e+01 1.7770000000e+00 0.0000e+00 -1.0000e+00
       15  1    3    3    0    0 +1.0983212874e+01 +2.8544094223e+01 -5.3579623545e+01 6.1719770482e+01 1.7770000000e+00 0.0000e+00 -1.0000e+00
       22  1    3    3    0    0 +8.1876139981e+00 +2.3863620591e+01 -6.7059595791e-01 2.5238048848e+01 0.0000000000e+00 0.0000e+00 -1.0000e+00
<mgrwt>
<rscale>  2 0.12500000E+03</rscale>
<asrwt>0</asrwt>
<pdfrwt beam="1">  1       21 0.50204267E-02 0.12500000E+03</pdfrwt>
<pdfrwt beam="2">  1       21 0.16826802E-01 0.12500000E+03</pdfrwt>
<totfact> 0.84867560E+06</totfact>
</mgrwt>
</event>
<event>
 6      0 +9.8758382e+01 1.25000000e+02 7.54677100e-03 1.12640300e-01
       21 -1    0    0  502  501 +0.0000000000e+00 +0.0000000000e+00 +3.5849489387e+01 3.5849489387e+01 0.0000000000e+00 0.0000e+00 1.0000e+00
       21 -1    0    0  501  502 -0.0000000000e+00 -0.0000000000e+00 -1.0896250035e+02 1.0896250035e+02 0.0000000000e+00 0.0000e+00 1.0000e+00
       25  2    1    2    0    0 +0.0000000000e+00 +0.0000000000e+00 -7.3113010965e+01 1.4481198974e+02 1.2500000000e+02 0.0000e+00 0.0000e+00
      -15  1    3    3    0    0 -1.1687935203e+00 -1.9886815809e+01 -7.6494300684e+01 7.9065714993e+01 1.7770000000e+00 0.0000e+00 -1.0000e+00
       15  1    3    3    0    0 +2.4110568981e+01 +2.6371585814e+01 -1.1575556492e+01 3.7602278017e+01 1.7770000000e+00 0.0000e+00 -1.0000e+00
       22  1    3    3    0    0 -2.2941775461e+01 -6.4847700052e+00 +1.4956846211e+01 2.8143996729e+01 0.0000000000e+00 0.0000e+00 -1.0000e+00
<mgrwt>
<rscale>  2 0.12500000E+03</rscale>
<asrwt>0</asrwt>
<pdfrwt beam="1">  1       21 0.52719837E-02 0.12500000E+03</pdfrwt>
<pdfrwt beam="2">  1       21 0.16023897E-01 0.12500000E+03</pdfrwt>
<totfact> 0.85506608E+06</totfact>
</mgrwt>
</event>
<event>
 6      0 +9.8758382e+01 1.25000000e+02 7.54677100e-03 1.12640300e-01
       21 -1    0    0  502  501 +0.0000000000e+00 +0.0000000000e+00 +5.5413778902e+02 5.5413778902e+02 0.0000000000e+00 0.0000e+00 1.0000e+00
       21 -1    0    0  501  502 -0.0000000000e+00 -0.0000000000e+00 -7.0492395165e+00 7.0492395165e+00 0.0000000000e+00 0.0000e+00 1.0000e+00
       25  2    1    2    0    0 +0.0000000000e+00 +0.0000000000e+00 +5.4708854951e+02 5.6118702854e+02 1.2500000000e+02 0.0000e+00 0.0000e+00
      -15  1    3    3    0    0 +3.9848995732e+01 +5.0873337084e+00 +1.6914135135e+02 1.7385562370e+02 1.7770000000e+00 0.0000e+00 -1.0000e+00
       15  1    3    3    0    0 -1.4325439749e+01 -3.9526539662e+00 +8.9247001704e+00 1.7425547322e+01 1.7770000000e+00 0.0000e+00 -1.0000e+00
       22  1    3    3    0    0 -2.5523555983e+01 -1.1346797421e+00 +3.6902249804e+02 3.6990585758e+02 0.0000000000e+00 0.0000e+00 -1.0000e+00
<mgrwt>
<rscale>  2 0.12500000E+03</rscale>
<asrwt>0</asrwt>
<pdfrwt beam="1">  1       21 0.81490822E-01 0.12500000E+03</pdfrwt>
<pdfrwt beam="2">  1       21 0.10366532E-02 0.12500000E+03</pdfrwt>
<totfact> 0.41046241E+06</totfact>
</mgrwt>
</event>
<event>
 6      0 +9.8758382e+01 1.25000000e+02 7.54677100e-03 1.12640300e-01
       21 -1    0    0  502  501 +0.0000000000e+00 +0.0000000000e+00 +1.8645627269e+02 1.8645627269e+02 0.0000000000e+00 0.0000e+00 1.0000e+00
       21 -1    0    0  501  502 -0.0000000000e+00 -0.0000000000e+00 -2.0949952199e+01 2.0949952199e+01 0.0000000000e+00 0.0000e+00 1.0000e+00
       25  2    1    2    0    0 +0.0000000000e+00 +0.0000000000e+00 +1.6550632049e+02 2.0740622488e+02 1.2500000000e+02 0.0000e+00 0.0000e+00
      -15  1    3    3    0    0 -1.8410351357e+01 +3.1410486361e+00 +9.8501808361e+00 2.1189408088e+01 1.7770000000e+00 0.0000e+00 -1.0000e+00
       15  1    3    3    0    0 -5.1409487944e+00 -1.8152654676e+01 -7.7261872361e+00 2.0464601744e+01 1.7770000000e+00 0.0000e+00 -1.0000e+00
       22  1    3    3    0    0 +2.3551300151e+01 +1.5011606040e+01 +1.6338232691e+02 1.6575221507e+02 0.0000000000e+00 0.0000e+00 -1.0000e+00
<mgrwt>
<rscale>  2 0.12500000E+03</rscale>
<asrwt>0</asrwt>
<pdfrwt beam="1">  1       21 0.27420039E-01 0.12500000E+03</pdfrwt>
<pdfrwt beam="2">  1       21 0.30808754E-02 0.12500000E+03</pdfrwt>
<totfact> 0.75751897E+06</totfact>
</mgrwt>
</event>
<event>
 6      0 +9.8758382e+01 1.25000000e+02 7.54677100e-03 1.12640300e-01
       21 -1    0    0  502  501 +0.0000000000e+00 +0.0000000000e+00 +1.2582320272e+02 1.2582320272e+02 0.0000000000e+00 0.0000e+00 1.0000e+00
       21 -1    0    0  501  502 -0.0000000000e+00 -0.0000000000e+00 -3.1045545778e+01 3.1045545778e+01 0.0000000000e+00 0.0000e+00 1.0000e+00
       25  2    1    2    0    0 +0.0000000000e+00 +0.0000000000e+00 +9.4777656941e+01 1.5686874850e+02 1.2500000000e+02 0.0000e+00 0.0000e+00
      -15  1    3    3    0    0 -1.2249463193e+01 -6.7950076079e-01 -6.0192260646e+00 1.3780416584e+01 1.7770000000e+00 0.0000e+00 -1.0000e+00
       15  1    3    3    0    0 -3.9714084652e+01 +1.2603032170e+01 +1.9912230934e+01 4.6213630126e+01 1.7770000000e+00 0.0000e+00 -1.0000e+00
       22  1    3    3    0    0 +5.1963547845e+01 -1.1923531409e+01 +8.0884652070e+01 9.6874701788e+01 0.0000000000e+00 0.0000e+00 -1.0000e+00
<mgrwt>
<rscale>  2 0.12500000E+03</rscale>
<asrwt>0</asrwt>
<pdfrwt beam="1">  1       21 0.18503412E-01 0.12500000E+03</pdfrwt>
<pdfrwt beam="2">  1       21 0.45655215E-02 0.12500000E+03</pdfrwt>
<totfact> 0.83489162E+06</totfact>
</mgrwt>
</event>
<event>
 6      0 +9.8758382e+01 1.25000000e+02 7.54677100e-03 1.12640300e-01
       21 -1    0    0  502  501 +0.0000000000e+00 +0.0000000000e+00 +5.0460082333e+00 5.0460082333e+00 0.0000000000e+00 0.0000e+00 -1.0000e+00
       21 -1    0    0  501  502 -0.0000000000e+00 -0.0000000000e+00 -7.7412675910e+02 7.7412675910e+02 0.0000000000e+00 0.0000e+00 -1.0000e+00
       25  2    1    2    0    0 +0.0000000000e+00 +0.0000000000e+00 -7.6908075087e+02 7.7917276733e+02 1.2500000000e+02 0.0000e+00 0.0000e+00
      -15  1    3    3    0    0 +2.0591995389e+01 +6.9071275864e+00 -4.1503251720e+02 4.1560424294e+02 1.7770000000e+00 0.0000e+00 -1.0000e+00
       15  1    3    3    0    0 -2.8615813152e+01 -3.8828983243e+01 -2.4289513243e+02 2.4764441805e+02 1.7770000000e+00 0.0000e+00 -1.0000e+00
       22  1    3    3    0    0 +8.0238177624e+00 +3.1921855656e+01 -1.1115310149e+02 1.1592410659e+02 0.0000000000e+00 0.0000e+00 -1.0000e+00
<mgrwt>
<rscale>  2 0.12500000E+03</rscale>
<asrwt>0</asrwt>
<pdfrwt beam="1">  1       21 0.74206061E-03 0.12500000E+03</pdfrwt>
<pdfrwt beam="2">  1       21 0.11384208E+00 0.12500000E+03</pdfrwt>
<totfact> 0.29178117E+06</totfact>
</mgrwt>
</event>
<event>
 6      0 +9.8758382e+01 1.25000000e+02 7.54677100e-03 1.12640300e-01
       21 -1    0    0  502  501 +0.0000000000e+00 +0.0000000000e+00 +3.6660276136e+01 3.6660276136e+01 0.0000000000e+00 0.0000e+00 -1.0000e+00
       21 -1    0    0  501  502 -0.0000000000e+00 -0.0000000000e+00 -1.0655266167e+02 1.0655266167e+02 0.0000000000e+00 0.0000e+00 -1.0000e+00
       25  2    1    2    0    0 +0.0000000000e+00 +0.0000000000e+00 -6.9892385537e+01 1.4321293781e+02 1.2500000000e+02 0.0000e+00 0.0000e+00
      -15  1    3    3    0    0 +1.5052068873e+01 -1.2495583578e+01 -2.9802291953e+01 3.5693679005e+01 1.7770000000e+00 0.0000e+00 -1.0000e+00
       15  1    3    3    0    0 +6.3832802641e+00 +3.2711158679e+00 -6.9547310143e+01 6.9938777106e+01 1.7770000000e+00 0.0000e+00 -1.0000e+00
       22  1    3    3    0    0 -2.1435349137e+01 +9.2244677103e+00 +2.9457216560e+01 3.7580481697e+01 0.0000000000e+00 0.0000e+00 -1.0000e+00
<mgrwt>
<rscale>  2 0.12500000E+03</rscale>
<asrwt>0</asrwt>
<pdfrwt beam="1">  1       21 0.53912169E-02 0.12500000E+03</pdfrwt>
<pdfrwt beam="2">  1       21 0.15669510E-01 0.12500000E+03</pdfrwt>
<totfact> 0.85783172E+06</totfact>
</mgrwt>
</event>
<event>
 6      0 +9.8758382e+01 1.25000000e+02 7.54677100e-03 1.12640300e-01
       21 -1    0    0  502  501 +0.0000000000e+00 +0.0000000000e+00 +7.8139553485e+01 7.8139553485e+01 0.0000000000e+00 0.0000e+00 1.0000e+00
       21 -1    0    0  501  502 -0.0000000000e+00 -0.0000000000e+00 -4.9990687504e+01 4.9990687504e+01 0.0000000000e+00 0.0000e+00 1.0000e+00
       25  2    1    2    0    0 +0.0000000000e+00 +0.0000000000e+00 +2.8148865981e+01 1.2813024099e+02 1.2500000000e+02 0.0000e+00 0.0000e+00
      -15  1    3    3    0    0 -1.6990974598e+01 -1.3557365536e-01 +3.8708579202e+01 4.2311032023e+01 1.7770000000e+00 0.0000e+00 -1.0000e+00
       15  1    3    3    0    0 -1.2193065227e+01 +3.4784926756e+01 +6.3862085535e+00 3.7451346541e+01 1.7770000000e+00 0.0000e+00 -1.0000e+00
       22  1    3    3    0    0 +2.9184039825e+01 -3.4649353101e+01 -1.6945921775e+01 4.8367862425e+01 0.0000000000e+00 0.0000e+00 -1.0000e+00
<mgrwt>
<rscale>  2 0.12500000E+03</rscale>
<asrwt>0</asrwt>
<pdfrwt beam="1">  1       21 0.11491111E-01 0.12500000E+03</pdfrwt>
<pdfrwt beam="2">  1       21 0.73515717E-02 0.12500000E+03</pdfrwt>
<totfact> 0.88434670E+06</totfact>
</mgrwt>
</event>
<event>
 6      0 +9.8758382e+01 1.25000000e+02 7.54677100e-03 1.12640300e-01
       21 -1    0    0  502  501 +0.0000000000e+00 +0.0000000000e+00 +3.8501712774e+01 3.8501712774e+01 0.0000000000e+00 0.0000e+00 -1.0000e+00
       21 -1    0    0  501  502 -0.0000000000e+00 -0.0000000000e+00 -1.0145652540e+02 1.0145652540e+02 0.0000000000e+00 0.0000e+00 -1.0000e+00
       25  2    1    2    0    0 +0.0000000000e+00 +0.0000000000e+00 -6.2954812628e+01 1.3995823817e+02 1.2500000000e+02 0.0000e+00 0.0000e+00
      -15  1    3    3    0    0 -1.5863144949e+01 -1.2060999040e+01 -2.5995095997e+01 3.2802588472e+01 1.7770000000e+00 0.0000e+00 -1.0000e+00
       15  1    3    3    0    0 +6.2429402869e+00 -4.7791502996e+00 -6.9126295507e+01 6.9594662443e+01 1.7770000000e+00 0.0000e+00 -1.0000e+00
       22  1    3    3    0    0 +9.6202046625e+00 +1.6840149340e+01 +3.2166578874e+01 3.7560987261e+01 0.0000000000e+00 0.0000e+00 -1.0000e+00
<mgrwt>
<rscale>  2 0.12500000E+03</rscale>
<asrwt>0</asrwt>
<pdfrwt beam="1">  1       21 0.56620167E-02 0.12500000E+03</pdfrwt>
<pdfrwt beam="2">  1       21 0.14920077E-01 0.12500000E+03</pdfrwt>
<totfact> 0.86347530E+06</totfact>
</mgrwt>
</event>
<event>
 6      0 +9.8758382e+01 1.25000000e+02 7.54677100e-03 1.12640300e-01
       21 -1    0    0  502  501 +0.0000000000e+00 +0.0000000000e+00 +1.5839124535e+02 1.5839124535e+02 0.0000000000e+00 0.0000e+00 1.0000e+00
       21 -1    0    0  501  502 -0.0000000000e+00 -0.0000000000e+00 -2.4662032244e+01 2.4662032244e+01 0.0000000000e+00 0.0000e+00 1.0000e+00
       25  2    1    2    0    0 +0.0000000000e+00 +0.0000000000e+00 +1.3372921311e+02 1.8305327759e+02 1.2500000000e+02 0.0000e+00 0.0000e+00
      -15  1    3    3    0    0 -1.8265408619e+01 +9.0098502289e+00 +4.5078076509e+01 4.9497406638e+01 1.7770000000e+00 0.0000e+00 -1.0000e+00
       15  1    3    3    0    0 -2.2865076595e+01 -3.3476634526e-01 +8.8599725811e+01 9.1520450933e+01 1.7770000000e+00 0.0000e+00 -1.0000e+00
       22  1    3    3    0    0 +4.1130485214e+01 -8.6750838837e+00 +5.1410800637e-02 4.2035420034e+01 0.0000000000e+00 0.0000e+00 -1.0000e+00
<mgrwt>
<rscale>  2 0.12500000E+03</rscale>
<asrwt>0</asrwt>
<pdfrwt beam="1">  1       21 0.23292830E-01 0.12500000E+03</pdfrwt>
<pdfrwt beam="2">  1       21 0.36267695E-02 0.12500000E+03</pdfrwt>
<totfact> 0.79341332E+06</totfact>
</mgrwt>
</event>
<event>
 6      0 +9.8758382e+01 1.25000000e+02 7.54677100e-03 1.12640300e-01
       21 -1    0    0  502  501 +0.0000000000e+00 +0.0000000000e+00 +1.0970637539e+02 1.0970637539e+02 0.0000000000e+00 0.0000e+00 1.0000e+00
       21 -1    0    0  501  502 -0.0000000000e+00 -0.0000000000e+00 -3.5606408344e+01 3.5606408344e+01 0.0000000000e+00 0.0000e+00 1.0000e+00
       25  2    1    2    0    0 +0.0000000000e+00 +0.0000000000e+00 +7.4099967043e+01 1.4531278373e+02 1.2500000000e+02 0.0000e+00 0.0000e+00
      -15  1    3    3    0    0 -1.1665872199e+01 -2.5915300284e+01 +4.6608260020e+01 5.4618522445e+01 1.7770000000e+00 0.0000e+00 -1.0000e+00
       15  1    3    3    0    0 +2.2325897662e+01 -1.9228392086e+01 -9.8792231783e+00 3.1127697445e+01 1.7770000000e+00 0.0000e+00 -1.0000e+00
       22  1    3    3    0    0 -1.0660025463e+01 +4.5143692370e+01 +3.7370930201e+01 5.9566563841e+01 0.0000000000e+00 0.0000e+00 -1.0000e+00
<mgrwt>
<rscale>  2 0.12500000E+03</rscale>
<asrwt>0</asrwt>
<pdfrwt beam="1">  1       21 0.16133290E-01 0.12500000E+03</pdfrwt>
<pdfrwt beam="2">  1       21 0.52362365E-02 0.12500000E+03</pdfrwt>
<totfact> 0.85420512E+06</totfact>
</mgrwt>
</event>
<event>
 6      0 +9.8758382e+01 1.25000000e+02 7.54677100e-03 1.12640300e-01
       21 -1    0    0  502  501 +0.0000000000e+00 +0.0000000000e+00 +1.3575646646e+02 1.3575646646e+02 0.0000000000e+00 0.0000e+00 1.0000e+00
       21 -1    0    0  501  502 -0.0000000000e+00 -0.0000000000e+00 -2.8773951635e+01 2.8773951635e+01 0.0000000000e+00 0.0000e+00 1.0000e+00
       25  2    1    2    0    0 +0.0000000000e+00 +0.0000000000e+00 +1.0698251482e+02 1.6453041809e+02 1.2500000000e+02 0.0000e+00 0.0000e+00
      -15  1    3    3    0    0 +3.0892047498e+01 -2.0015514090e+01 -5.1620282550e+00 3.7212144088e+01 1.7770000000e+00 0.0000e+00 -1.0000e+00
       15  1    3    3    0    0 +1.1521983300e+01 +1.0027233809e+01 +4.2163274526e+01 4.4879850320e+01 1.7770000000e+00 0.0000e+00 -1.0000e+00
       22  1    3    3    0    0 -4.2414030798e+01 +9.9882802808e+00 +6.9981268549e+01 8.2438423683e+01 0.0000000000e+00 0.0000e+00 -1.0000e+00
<mgrwt>
<rscale>  2 0.12500000E+03</rscale>
<asrwt>0</asrwt>
<pdfrwt beam="1">  1       21 0.19964186E-01 0.12500000E+03</pdfrwt>
<pdfrwt beam="2">  1       21 0.42314636E-02 0.12500000E+03</pdfrwt>
<totfact> 0.82242393E+06</totfact>
</mgrwt>
</event>
<event>
 6      0 +9.8758382e+01 1.25000000e+02 7.54677100e-03 1.12640300e-01
       21 -1    0    0  502  501 +0.0000000000e+00 +0.0000000000e+00 +7.8284212846e+01 7.8284212846e+01 0.0000000000e+00 0.0000e+00 1.0000e+00
       21 -1    0    0  501  502 -0.0000000000e+00 -0.0000000000e+00 -4.9898311013e+01 4.9898311013e+01 0.0000000000e+00 0.0000e+00 1.0000e+00
       25  2    1    2    0    0 +0.0000000000e+00 +0.0000000000e+00 +2.8385901833e+01 1.2818252386e+02 1.2500000000e+02 0.0000e+00 0.0000e+00
      -15  1    3    3    0    0 -4.8332194279e+01 -2.9016220595e+00 +9.7623790755e+00 4.9425521632e+01 1.7770000000e+00 0.0000e+00 -1.0000e+00
       15  1    3    3    0    0 +2.5086072234e+01 +1.6346776133e+01 -1.6742284470e+01 3.4350981476e+01 1.7770000000e+00 0.0000e+00 -1.0000e+00
       22  1    3    3    0    0 +2.3246122045e+01 -1.3445154073e+01 +3.5365807227e+01 4.4406020751e+01 0.0000000000e+00 0.0000e+00 -1.0000e+00
<mgrwt>
<rscale>  2 0.12500000E+03</rscale>
<asrwt>0</asrwt>
<pdfrwt beam="1">  1       21 0.11512384E-01 0.12500000E+03</pdfrwt>
<pdfrwt beam="2">  1       21 0.73379869E-02 0.12500000E+03</pdfrwt>
<totfact> 0.88425412E+06</totfact>
</mgrwt>
</event>
<event>
 6      0 +9.8758382e+01 1.25000000e+02 7.54677100e-03 1.12640300e-01
       21 -1    0    0  502  501 +0.0000000000e+00 +0.0000000000e+00 +1.8308347955e+02 1.8308347955e+02 0.0000000000e+00 0.0000e+00 1.0000e+00
       21 -1    0    0  501  502 -0.0000000000e+00 -0.0000000000e+00 -2.1335895569e+01 2.1335895569e+01 0.0000000000e+00 0.0000e+00 1.0000e+00
       25  2    1    2    0    0 +0.0000000000e+00 +0.0000000000e+00 +1.6174758398e+02 2.0441937512e+02 1.2500000000e+02 0.0000e+00 0.0000e+00
      -15  1    3    3    0    0 +1.4853074925e+01 -2.9194819499e+00 +8.0619502817e+01 8.2047542151e+01 1.7770000000e+00 0.0000e+00 -1.0000e+00
       15  1    3    3    0    0 -3.7058547521e+01 -2.0876822053e+01 +7.9017594532e+01 8.9755866761e+01 1.7770000000e+00 0.0000e+00 -1.0000e+00
       22  1    3    3    0    0 +2.2205472596e+01 +2.3796304003e+01 +2.1104866258e+00 3.2615966201e+01 0.0000000000e+00 0.0000e+00 -1.0000e+00
<mgrwt>
<rscale>  2 0.12500000E+03</rscale>
<asrwt>0</asrwt>
<pdfrwt beam="1">  1       21 0.26924040E-01 0.12500000E+03</pdfrwt>
<pdfrwt beam="2">  1       21 0.31376318E-02 0.12500000E+03</pdfrwt>
<totfact> 0.76178987E+06</totfact>
</mgrwt>
</event>
<event>
 6      0 +9.8758382e+01 1.25000000e+02 7.54677100e-03 1.12640300e-01
       21 -1    0    0  502  501 +0.0000000000e+00 +0.0000000000e+00 +3.9798169061e+01 3.9798169061e+01 0.0000000000e+00 0.0000e+00 -1.0000e+00
       21 -1    0    0  501  502 -0.0000000000e+00 -0.0000000000e+00 -9.8151500237e+01 9.8151500237e+01 0.0000000000e+00 0.0000e+00 -1.0000e+00
       25  2    1    2    0    0 +0.0000000000e+00 +0.0000000000e+00 -5.8353331176e+01 1.3794966930e+02 1.2500000000e+02 0.0000e+00 0.0000e+00
      -15  1    3    3    0    0 +2.0669137019e+01 +3.5412559553e+01 -2.5451450687e+01 4.8292822141e+01 1.7770000000e+00 0.0000e+00 -1.0000e+00
       15  1    3    3    0    0 -2.5437898718e+01 -5.3731803793e+01 -3.7324519185e+01 7.0217311907e+01 1.7770000000e+00 0.0000e+00 -1.0000e+00
       22  1    3    3    0    0 +4.7687616993e+00 +1.8319244240e+01 +4.4226386979e+00 1.9439535250e+01 0.0000000000e+00 0.0000e+00 -1.0000e+00
<mgrwt>
<rscale>  2 0.12500000E+03</rscale>
<asrwt>0</asrwt>
<pdfrwt beam="1">  1       21 0.58526720E-02 0.12500000E+03</pdfrwt>
<pdfrwt beam="2">  1       21 0.14434044E-01 0.12500000E+03</pdfrwt>
<totfact> 0.86693995E+06</totfact>
</mgrwt>
</event>
<event>
 6      0 +9.8758382e+01 1.25000000e+02 7.54677100e-03 1.12640300e-01
       21 -1    0    0  502  501 +0.0000000000e+00 +0.0000000000e+00 +4.5116701786e+02 4.5116701786e+02 0.0000000000e+00 0.0000e+00 -1.0000e+00
       21 -1    0    0  501  502 -0.0000000000e+00 -0.0000000000e+00 -8.6581018678e+00 8.6581018678e+00 0.0000000000e+00 0.0000e+00 -1.0000e+00
       25  2    1    2    0    0 +0.0000000000e+00 +0.0000000000e+00 +4.4250891599e+02 4.5982511973e+02 1.2500000000e+02 0.0000e+00 0.0000e+00
      -15  1    3    3    0    0 +3.4000780774e+01 -2.2541691988e+01 +1.1112426151e+02 1.1838893612e+02 1.7770000000e+00 0.0000e+00 -1.0000e+00
       15  1    3    3    0    0 -2.7448957606e+01 +1.9802176950e+01 +5.2680404952e+01 6.2641474124e+01 1.7770000000e+00 0.0000e+00 -1.0000e+00
       22  1    3    3    0    0 -6.5518231686e+00 +2.7395150379e+00 +2.7870424947e+02 2.7879470943e+02 0.0000000000e+00 0.0000e+00 -1.0000e+00
<mgrwt>
<rscale>  2 0.12500000E+03</rscale>
<asrwt>0</asrwt>
<pdfrwt beam="1">  1       21 0.66348075E-01 0.12500000E+03</pdfrwt>
<pdfrwt beam="2">  1       21 0.12732506E-02 0.12500000E+03</pdfrwt>
<totfact> 0.48466273E+06</totfact>
</mgrwt>
</event>
<event>
 6      0 +9.8758382e+01 1.25000000e+02 7.54677100e-03 1.12640300e-01
       21 -1    0    0  502  501 +0.0000000000e+00 +0.0000000000e+00 +4.0625214417e+01 4.0625214417e+01 0.0000000000e+00 0.0000e+00 -1.0000e+00
       21 -1    0    0  501  502 -0.0000000000e+00 -0.0000000000e+00 -9.6153338660e+01 9.6153338660e+01 0.0000000000e+00 0.0000e+00 -1.0000e+00
       25  2    1    2    0    0 +0.0000000000e+00 +0.0000000000e+00 -5.5528124242e+01 1.3677855308e+02 1.2500000000e+02 0.0000e+00 0.0000e+00
      -15  1    3    3    0    0 -1.5393342754e+01 -2.5673246272e+01 +1.3738669495e+01 3.2984531887e+01 1.7770000000e+00 0.0000e+00 -1.0000e+00
       15  1    3    3    0    0 -2.5312596905e+00 +1.3217139222e+01 +1.2930959180e+01 1.8747465939e+01 1.7770000000e+00 0.0000e+00 -1.0000e+00
       22  1    3    3    0    0 +1.7924602444e+01 +1.2456107049e+01 -8.2197752916e+01 8.5046555251e+01 0.0000000000e+00 0.0000e+00 -1.0000e+00
<mgrwt>
<rscale>  2 0.12500000E+03</rscale>
<asrwt>0</asrwt>
<pdfrwt beam="1">  1       21 0.59742963E-02 0.12500000E+03</pdfrwt>
<pdfrwt beam="2">  1       21 0.14140197E-01 0.12500000E+03</pdfrwt>
<totfact> 0.86896354E+06</totfact>
</mgrwt>
</event>
<event>
 6      0 +9.8758382e+01 1.25000000e+02 7.54677100e-03 1.12640300e-01
       21 -1    0    0  502  501 +0.0000000000e+00 +0.0000000000e+00 +3.9064792438e+02 3.9064792438e+02 0.0000000000e+00 0.0000e+00 1.0000e+00
       21 -1    0    0  501  502 -0.0000000000e+00 -0.0000000000e+00 -9.9994131704e+00 9.9994131704e+00 0.0000000000e+00 0.0000e+00 1.0000e+00
       25  2    1    2    0    0 +0.0000000000e+00 +0.0000000000e+00 +3.8064851121e+02 4.0064733755e+02 1.2500000000e+02 0.0000e+00 0.0000e+00
      -15  1    3    3    0    0 +2.1148467741e+00 +1.8328081535e+01 +1.8675072415e+02 1.8766827609e+02 1.7770000000e+00 0.0000e+00 -1.0000e+00
       15  1    3    3    0    0 -1.0126605170e+01 -6.4568493410e+00 +1.9777056568e+02 1.9814286113e+02 1.7770000000e+00 0.0000e+00 -1.0000e+00
       22  1    3    3    0    0 +8.0117583958e+00 -1.1871232194e+01 -3.8727786191e+00 1.4836200342e+01 0.0000000000e+00 0.0000e+00 -1.0000e+00
<mgrwt>
<rscale>  2 0.12500000E+03</rscale>
<asrwt>0</asrwt>
<pdfrwt beam="1">  1       21 0.57448214E-01 0.12500000E+03</pdfrwt>
<pdfrwt beam="2">  1       21 0.14705022E-02 0.12500000E+03</pdfrwt>
<totfact> 0.53596167E+06</totfact>
</mgrwt>
</event>
<event>
 6      0 +9.8758382e+01 1.25000000e+02 7.54677100e-03 1.12640300e-01
       21 -1    0    0  502  501 +0.0000000000e+00 +0.0000000000e+00 +8.6383628543e+01 8.6383628543e+01 0.0000000000e+00 0.0000e+00 -1.0000e+00
       21 -1    0    0  501  502 -0.0000000000e+00 -0.0000000000e+00 -4.5219795300e+01 4.5219795300e+01 0.0000000000e+00 0.0000e+00 -1.0000e+00
       25  2    1    2    0    0 +0.0000000000e+00 +0.0000000000e+00 +4.1163833243e+01 1.3160342384e+02 1.2500000000e+02 0.0000e+00 0.0000e+00
      -15  1    3    3    0    0 +1.9681047847e+01 -3.3650507027e+01 +1.7211300320e+01 4.2650754451e+01 1.7770000000e+00 0.0000e+00 -1.0000e+00
       15  1    3    3    0    0 +1.0535356998e+01 +2.4725784613e+01 +4.4013436653e+01 5.1601342103e+01 1.7770000000e+00 0.0000e+00 -1.0000e+00
       22  1    3    3    0    0 -3.0216404846e+01 +8.9247224146e+00 -2.0060903728e+01 3.7351327290e+01 0.0000000000e+00 0.0000e+00 -1.0000e+00
<mgrwt>
<rscale>  2 0.12500000E+03</rscale>
<asrwt>0</asrwt>
<pdfrwt beam="1">  1       21 0.12703475E-01 0.12500000E+03</pdfrwt>
<pdfrwt beam="2">  1       21 0.66499699E-02 0.12500000E+03</pdfrwt>
<totfact> 0.87807325E+06</totfact>
</mgrwt>
</event>
<event>
 6      0 +9.8758382e+01 1.25000000e+02 7.54677100e-03 1.12640300e-01
       21 -1    0    0  502  501 +0.0000000000e+00 +0.0000000000e+00 +1.2330173196e+01 1.2330173196e+01 0.0000000000e+00 0.0000e+00 1.0000e+00
       21 -1    0    0  501  502 -0.0000000000e+00 -0.0000000000e+00 -3.1680414686e+02 3.1680414686e+02 0.0000000000e+00 0.0000e+00 1.0000e+00
       25  2    1    2    0    0 +0.0000000000e+00 +0.0000000000e+00 -3.0447397367e+02 3.2913432006e+02 1.2500000000e+02 0.0000e+00 0.0000e+00
      -15  1    3    3    0    0 -2.0966114577e+01 +1.0045712746e+01 -9.1213252608e+01 9.4146213336e+01 1.7770000000e+00 0.0000e+00 -1.0000e+00
       15  1    3    3    0    0 -5.2330207780e+00 +1.6336182311e+01 +1.2387490632e+00 1.7290100846e+01 1.7770000000e+00 0.0000e+00 -1.0000e+00
       22  1    3    3    0    0 +2.6199135354e+01 -2.6381895058e+01 -2.1449947013e+02 2.1769800589e+02 0.0000000000e+00 0.0000e+00 -1.0000e+00
<mgrwt>
<rscale>  2 0.12500000E+03</rscale>
<asrwt>0</asrwt>
<pdfrwt beam="1">  1       21 0.18132609E-02 0.12500000E+03</pdfrwt>
<pdfrwt beam="2">  1       21 0.46588842E-01 0.12500000E+03</pdfrwt>
<totfact> 0.60716038E+06</totfact>
</mgrwt>
</event>
<event>
 6      0 +9.8758382e+01 1.25000000e+02 7.54677100e-03 1.12640300e-01
       21 -1    0    0  502  501 +0.0000000000e+00 +0.0000000000e+00 +1.4861857306e+01 1.4861857306e+01 0.0000000000e+00 0.0000e+00 1.0000e+00
       21 -1    0    0  501  502 -0.0000000000e+00 -0.0000000000e+00 -2.6283726990e+02 2.6283726990e+02 0.0000000000e+00 0.0000e+00 1.0000e+00
       25  2    1    2    0    0 +0.0000000000e+00 +0.0000000000e+00 -2.4797541259e+02 2.7769912720e+02 1.2500000000e+02 0.0000e+00 0.0000e+00
      -15  1    3    3    0    0 -2.9528399108e+01 -2.4052918934e+01 -8.5373246120e+01 9.3499829653e+01 1.7770000000e+00 0.0000e+00 -1.0000e+00
       15  1    3    3    0    0 -2.0900872108e+01 +2.8931993179e+01 -7.2522440585e+01 8.0849049479e+01 1.7770000000e+00 0.0000e+00 -1.0000e+00
       22  1    3    3    0    0 +5.0429271216e+01 -4.8790742453e+00 -9.0079725895e+01 1.0335024808e+02 0.0000000000e+00 0.0000e+00 -1.0000e+00
<mgrwt>
<rscale>  2 0.12500000E+03</rscale>
<asrwt>0</asrwt>
<pdfrwt beam="1">  1       21 0.21855674E-02 0.12500000E+03</pdfrwt>
<pdfrwt beam="2">  1       21 0.38652537E-01 0.12500000E+03</pdfrwt>
<totfact> 0.66566624E+06</totfact>
</mgrwt>
</event>
<event>
 6      0 +9.8758382e+01 1.25000000e+02 7.54677100e-03 1.12640300e-01
       21 -1    0    0  502  501 +0.0000000000e+00 +0.0000000000e+00 +4.2256332706e+00 4.2256332706e+00 0.0000000000e+00 0.0000e+00 -1.0000e+00
       21 -1    0    0  501  502 -0.0000000000e+00 -0.0000000000e+00 -9.2441765526e+02 9.2441765526e+02 0.0000000000e+00 0.0000e+00 -1.0000e+00
       25  2    1    2    0    0 +0.0000000000e+00 +0.0000000000e+00 -9.2019202199e+02 9.2864328853e+02 1.2500000000e+02 0.0000e+00 0.0000e+00
      -15  1    3    3    0    0 +3.6938773020e+01 +1.4111130983e+01 -1.7722041797e+02 1.8158697983e+02 1.7770000000e+00 0.0000e+00 -1.0000e+00
       15  1    3    3    0    0 -3.9031412716e+01 +1.8491959897e+01 -5.0603722263e+02 5.0788013564e+02 1.7770000000e+00 0.0000e+00 -1.0000e+00
       22  1    3    3    0    0 +2.0926396957e+00 -3.2603090880e+01 -2.3693438145e+02 2.3917617312e+02 0.0000000000e+00 0.0000e+00 -1.0000e+00
<mgrwt>
<rscale>  2 0.12500000E+03</rscale>
<asrwt>0</asrwt>
<pdfrwt beam="1">  1       21 0.62141646E-03 0.12500000E+03</pdfrwt>
<pdfrwt beam="2">  1       21 0.13594382E+00 0.12500000E+03</pdfrwt>
<totfact> 0.23444080E+06</totfact>
</mgrwt>
</event>
<event>
 6      0 +9.8758382e+01 1.25000000e+02 7.54677100e-03 1.12640300e-01
       21 -1    0    0  502  501 +0.0000000000e+00 +0.0000000000e+00 +3.7170809022e+01 3.7170809022e+01 0.0000000000e+00 0.0000e+00 1.0000e+00
       21 -1    0    0  501  502 -0.0000000000e+00 -0.0000000000e+00 -1.0508918430e+02 1.0508918430e+02 0.0000000000e+00 0.0000e+00 1.0000e+00
       25  2    1    2    0    0 +0.0000000000e+00 +0.0000000000e+00 -6.7918375279e+01 1.4225999332e+02 1.2500000000e+02 0.0000e+00 0.0000e+00
      -15  1    3    3    0    0 -2.4529593623e+00 -7.0772707874e+00 +3.2258274948e+01 3.3164119211e+01 1.7770000000e+00 0.0000e+00 -1.0000e+00
       15  1    3    3    0    0 -1.9070811902e+01 +6.2243435241e+00 -3.4170727879e+01 3.9664022636e+01 1.7770000000e+00 0.0000e+00 -1.0000e+00
       22  1    3    3    0    0 +2.1523771264e+01 +8.5292726323e-01 -6.6005922350e+01 6.9431851478e+01 0.0000000000e+00 0.0000e+00 -1.0000e+00
<mgrwt>
<rscale>  2 0.12500000E+03</rscale>
<asrwt>0</asrwt>
<pdfrwt beam="1">  1       21 0.54662955E-02 0.12500000E+03</pdfrwt>
<pdfrwt beam="2">  1       21 0.15454292E-01 0.12500000E+03</pdfrwt>
<totfact> 0.85948730E+06</totfact>
</mgrwt>
</event>
<event>
 6      0 +9.8758382e+01 1.25000000e+02 7.54677100e-03 1.12640300e-01
       21 -1    0    0  502  501 +0.0000000000e+00 +0.0000000000e+00 +2.3570748530e+01 2.3570748530e+01 0.0000000000e+00 0.0000e+00 1.0000e+00
       21 -1    0    0  501  502 -0.0000000000e+00 -0.0000000000e+00 -1.6572447816e+02 1.6572447816e+02 0.0000000000e+00 0.0000e+00 1.0000e+00
       25  2    1    2    0    0 +0.0000000000e+00 +0.0000000000e+00 -1.4215372963e+02 1.8929522669e+02 1.2500000000e+02 0.0000e+00 0.0000e+00
      -15  1    3    3    0    0 -2.9745289431e+00 -1.2569141757e+01 -4.2007684263e+01 4.3984479230e+01 1.7770000000e+00 0.0000e+00 -1.0000e+00
       15  1    3    3    0    0 +4.7007704048e+01 -1.5473629292e+01 -3.0101027980e+01 5.7951592367e+01 1.7770000000e+00 0.0000e+00 -1.0000e+00
       22  1    3    3    0    0 -4.4033175105e+01 +2.8042771050e+01 -7.0045017387e+01 8.7359155094e+01 0.0000000000e+00 0.0000e+00 -1.0000e+00
<mgrwt>
<rscale>  2 0.12500000E+03</rscale>
<asrwt>0</asrwt>
<pdfrwt beam="1">  1       21 0.34662866E-02 0.12500000E+03</pdfrwt>
<pdfrwt beam="2">  1       21 0.24371246E-01 0.12500000E+03</pdfrwt>
<totfact> 0.78402838E+06</totfact>
</mgrwt>
</event>
<event>
 6      0 +9.8758382e+01 1.25000000e+02 7.54677100e-03 1.12640300e-01
       21 -1    0    0  502  501 +0.0000000000e+00 +0.0000000000e+00 +1.7271281600e+01 1.7271281600e+01 0.0000000000e+00 0.0000e+00 -1.0000e+00
       21 -1    0    0  501  502 -0.0000000000e+00 -0.0000000000e+00 -2.2617024552e+02 2.2617024552e+02 0.0000000000e+00 0.0000e+00 -1.0000e+00
       25  2    1    2    0    0 +0.0000000000e+00 +0.0000000000e+00 -2.0889896392e+02 2.4344152712e+02 1.2500000000e+02 0.0000e+00 0.0000e+00
      -15  1    3    3    0    0 -1.0973201500e+01 -2.2829551248e+01 -7.3869261687e+01 7.8111619575e+01 1.7770000000e+00 0.0000e+00 -1.0000e+00
       15  1    3    3    0    0 +3.6909166161e+01 +2.4883185990e+00 -1.3515582711e+01 3.9424700141e+01 1.7770000000e+00 0.0000e+00 -1.0000e+00
       22  1    3    3    0    0 -2.5935964661e+01 +2.0341232649e+01 -1.2151411953e+02 1.2590520741e+02 0.0000000000e+00 0.0000e+00 -1.0000e+00
<mgrwt>
<rscale>  2 0.12500000E+03</rscale>
<asrwt>0</asrwt>
<pdfrwt beam="1">  1       21 0.25398945E-02 0.12500000E+03</pdfrwt>
<pdfrwt beam="2">  1       21 0.33260328E-01 0.12500000E+03</pdfrwt>
<totfact> 0.70853923E+06</totfact>
</mgrwt>
</event>
<event>
 6      0 +9.8758382e+01 1.25000000e+02 7.54677100e-03 1.12640300e-01
       21 -1    0    0  502  501 +0.0000000000e+00 +0.0000000000e+00 +3.0878132297e+02 3.0878132297e+02 0.0000000000e+00 0.0000e+00 -1.0000e+00
       21 -1    0    0  501  502 -0.0000000000e+00 -0.0000000000e+00 -1.2650538454e+01 1.2650538454e+01 0.0000000000e+00 0.0000e+00 -1.0000e+00
       25  2    1    2    0    0 +0.0000000000e+00 +0.0000000000e+00 +2.9613078452e+02 3.2143186142e+02 1.2500000000e+02 0.0000e+00 0.0000e+00
      -15  1    3    3    0    0 +3.3577084603e+01 -2.8574820554e+01 +1.3742547196e+02 1.4433592433e+02 1.7770000000e+00 0.0000e+00 -1.0000e+00
       15  1    3    3    0    0 -7.9051643727e+00 -8.7030789390e-01 +1.2567431828e+02 1.2593824305e+02 1.7770000000e+00 0.0000e+00 -1.0000e+00
       22  1    3    3    0    0 -2.5671920230e+01 +2.9445128448e+01 +3.3030994321e+01 5.1157694079e+01 0.0000000000e+00 0.0000e+00 -1.0000e+00
<mgrwt>
<rscale>  2 0.12500000E+03</rscale>
<asrwt>0</asrwt>
<pdfrwt beam="1">  1       21 0.45409013E-01 0.12500000E+03</pdfrwt>
<pdfrwt beam="2">  1       21 0.18603735E-02 0.12500000E+03</pdfrwt>
<totfact> 0.61549657E+06</totfact>
</mgrwt>
</event>
<event>
 6      0 +9.8758382e+01 1.25000000e+02 7.54677100e-03 1.12640300e-01
       21 -1    0    0  502  501 +0.0000000000e+00 +0.0000000000e+00 +1.1419735074e+02 1.1419735074e+02 0.0000000000e+00 0.0000e+00 -1.0000e+00
       21 -1    0    0  501  502 -0.0000000000e+00 -0.0000000000e+00 -3.4206135034e+01 3.4206135034e+01 0.0000000000e+00 0.0000e+00 -1.0000e+00
       25  2    1    2    0    0 +0.0000000000e+00 +0.0000000000e+00 +7.9991215707e+01 1.4840348578e+02 1.2500000000e+02 0.0000e+00 0.0000e+00
      -15  1    3    3    0    0 -2.6727853459e+01 +3.0717877300e+01 +6.4075289537e+01 7.5939229615e+01 1.7770000000e+00 0.0000e+00 -1.0000e+00
       15  1    3    3    0    0 +1.0972497232e+00 +6.0515701264e+00 +2.5786502510e+01 2.6569284873e+01 1.7770000000e+00 0.0000e+00 -1.0000e+00
       22  1    3    3    0    0 +2.5630603735e+01 -3.6769447426e+01 -9.8705763434e+00 4.5894971285e+01 0.0000000000e+00 0.0000e+00 -1.0000e+00
<mgrwt>
<rscale>  2 0.12500000E+03</rscale>
<asrwt>0</asrwt>
<pdfrwt beam="1">  1       21 0.16793728E-01 0.12500000E+03</pdfrwt>
<pdfrwt beam="2">  1       21 0.50303140E-02 0.12500000E+03</pdfrwt>
<totfact> 0.84894192E+06</totfact>
</mgrwt>
</event>
<event>
 6      0 +9.8758382e+01 1.25000000e+02 7.54677100e-03 1.12640300e-01
       21 -1    0    0  502  501 +0.0000000000e+00 +0.0000000000e+00 +3.1193136370e+02 3.1193136370e+02 0.0000000000e+00 0.0000e+00 -1.0000e+00
       21 -1    0    0  501  502 -0.0000000000e+00 -0.0000000000e+00 -1.2522786916e+01 1.2522786916e+01 0.0000000000e+00 0.0000e+00 -1.0000e+00
       25  2    1    2    0    0 +0.0000000000e+00 +0.0000000000e+00 +2.9940857678e+02 3.2445415061e+02 1.2500000000e+02 0.0000e+00 0.0000e+00
      -15  1    3    3    0    0 +1.7246409387e+01 -1.0886148441e-01 +6.6899554965e+01 6.9109758147e+01 1.7770000000e+00 0.0000e+00 -1.0000e+00
       15  1    3    3    0    0 +2.4699453095e+00 -1.4027328147e+01 +2.3055943354e+02 2.3100579362e+02 1.7770000000e+00 0.0000e+00 -1.0000e+00
       22  1    3    3    0    0 -1.9716354697e+01 +1.4136189631e+01 +1.9495882919e+00 2.4338598857e+01 0.0000000000e+00 0.0000e+00 -1.0000e+00
<mgrwt>
<rscale>  2 0.12500000E+03</rscale>
<asrwt>0</asrwt>
<pdfrwt beam="1">  1       21 0.45872254E-01 0.12500000E+03</pdfrwt>
<pdfrwt beam="2">  1       21 0.18415865E-02 0.12500000E+03</pdfrwt>
<totfact> 0.61220802E+06</totfact>
</mgrwt>
</event>
<event>
 6      0 +9.8758382e+01 1.25000000e+02 7.54677100e-03 1.12640300e-01
       21 -1    0    0  502  501 +0.0000000000e+00 +0.0000000000e+00 +1.9221879525e+01 1.9221879525e+01 0.0000000000e+00 0.0000e+00 1.0000e+00
       21 -1    0    0  501  502 -0.0000000000e+00 -0.0000000000e+00 -2.0321894094e+02 2.0321894094e+02 0.0000000000e+00 0.0000e+00 1.0000e+00
       25  2    1    2    0    0 +0.0000000000e+00 +0.0000000000e+00 -1.8399706142e+02 2.2244082047e+02 1.2500000000e+02 0.0000e+00 0.0000e+00
      -15  1    3    3    0    0 +1.3308761842e+00 +3.4598987290e+00 -2.0979806354e+00 4.6153420652e+00 1.7770000000e+00 0.0000e+00 -1.0000e+00
       15  1    3    3    0    0 +1.8602147960e+01 +1.6205585376e+01 +7.9047243657e+00 2.5967350701e+01 1.7770000000e+00 0.0000e+00 -1.0000e+00
       22  1    3    3    0    0 -1.9933024144e+01 -1.9665484105e+01 -1.8980380515e+02 1.9185812770e+02 0.0000000000e+00 0.0000e+00 -1.0000e+00
<mgrwt>
<rscale>  2 0.12500000E+03</rscale>
<asrwt>0</asrwt>
<pdfrwt beam="1">  1       21 0.28267470E-02 0.12500000E+03</pdfrwt>
<pdfrwt beam="2">  1       21 0.29885138E-01 0.12500000E+03</pdfrwt>
<totfact> 0.73659390E+06</totfact>
</mgrwt>
</event>
<event>
 6      0 +9.8758382e+01 1.25000000e+02 7.54677100e-03 1.12640300e-01
       21 -1    0    0  502  501 +0.0000000000e+00 +0.0000000000e+00 +5.2727401040e+01 5.2727401040e+01 0.0000000000e+00 0.0000e+00 -1.0000e+00
       21 -1    0    0  501  502 -0.0000000000e+00 -0.0000000000e+00 -7.4083871440e+01 7.4083871440e+01 0.0000000000e+00 0.0000e+00 -1.0000e+00
       25  2    1    2    0    0 +0.0000000000e+00 +0.0000000000e+00 -2.1356470400e+01 1.2681127248e+02 1.2500000000e+02 0.0000e+00 0.0000e+00
      -15  1    3    3    0    0 -4.3597746692e+01 +3.3270400123e+01 -6.3259429810e+00 5.5234575445e+01 1.7770000000e+00 0.0000e+00 -1.0000e+00
       15  1    3    3    0    0 -4.6561724435e+00 -8.8046082630e+00 +7.8798272152e+00 1.2823824486e+01 1.7770000000e+00 0.0000e+00 -1.0000e+00
       22  1    3    3    0    0 +4.8253919136e+01 -2.4465791860e+01 -2.2910354634e+01 5.8752872550e+01 0.0000000000e+00 0.0000e+00 -1.0000e+00
<mgrwt>
<rscale>  2 0.12500000E+03</rscale>
<asrwt>0</asrwt>
<pdfrwt beam="1">  1       21 0.77540296E-02 0.12500000E+03</pdfrwt>
<pdfrwt beam="2">  1       21 0.10894687E-01 0.12500000E+03</pdfrwt>
<totfact> 0.88666817E+06</totfact>
</mgrwt>
</event>
<event>
 6      0 +9.8758382e+01 1.25000000e+02 7.54677100e-03 1.12640300e-01
       21 -1    0    0  502  501 +0.0000000000e+00 +0.0000000000e+00 +4.4061890233e+01 4.4061890233e+01 0.0000000000e+00 0.0000e+00 -1.0000e+00
       21 -1    0    0  501  502 -0.0000000000e+00 -0.0000000000e+00 -8.8653709120e+01 8.8653709120e+01 0.0000000000e+00 0.0000e+00 -1.0000e+00
       25  2    1    2    0    0 +0.0000000000e+00 +0.0000000000e+00 -4.4591818886e+01 1.3271559935e+02 1.2500000000e+02 0.0000e+00 0.0000e+00
      -15  1    3    3    0    0 +9.4723584823e+00 +1.1179875549e+00 -8.9682809074e+00 1.3212239130e+01 1.7770000000e+00 0.0000e+00 -1.0000e+00
       15  1    3    3    0    0 -2.8134096968e+01 +1.4754710377e+01 +3.3478750666e+01 4.6186722828e+01 1.7770000000e+00 0.0000e+00 -1.0000e+00
       22  1    3    3    0    0 +1.8661738486e+01 -1.5872697932e+01 -6.9102288646e+01 7.3316637395e+01 0.0000000000e+00 0.0000e+00 -1.0000e+00
<mgrwt>
<rscale>  2 0.12500000E+03</rscale>
<asrwt>0</asrwt>
<pdfrwt beam="1">  1       21 0.64796899E-02 0.12500000E+03</pdfrwt>
<pdfrwt beam="2">  1       21 0.13037310E-01 0.12500000E+03</pdfrwt>
<totfact> 0.87608572E+06</totfact>
</mgrwt>
</event>
<event>
 6      0 +9.8758382e+01 1.25000000e+02 7.54677100e-03 1.12640300e-01
       21 -1    0    0  502  501 +0.0000000000e+00 +0.0000000000e+00 +1.2870209517e+02 1.2870209517e+02 0.0000000000e+00 0.0000e+00 1.0000e+00
       21 -1    0    0  501  502 -0.0000000000e+00 -0.0000000000e+00 -3.0351098752e+01 3.0351098752e+01 0.0000000000e+00 0.0000e+00 1.0000e+00
       25  2    1    2    0    0 +0.0000000000e+00 +0.0000000000e+00 +9.8350996413e+01 1.5905319392e+02 1.2500000000e+02 0.0000e+00 0.0000e+00
      -15  1    3    3    0    0 -9.9030744064e+00 -2.4783835386e+01 +4.3611030414e+01 5.1160424958e+01 1.7770000000e+00 0.0000e+00 -1.0000e+00
       15  1    3    3    0    0 +1.0320143938e+01 -2.8295522797e+01 +4.4608286175e+01 5.3853494833e+01 1.7770000000e+00 0.0000e+00 -1.0000e+00
       22  1    3    3    0    0 -4.1706953130e-01 +5.3079358183e+01 +1.0131679824e+01 5.4039274127e+01 0.0000000000e+00 0.0000e+00 -1.0000e+00
<mgrwt>
<rscale>  2 0.12500000E+03</rscale>
<asrwt>0</asrwt>
<pdfrwt beam="1">  1       21 0.18926778E-01 0.12500000E+03</pdfrwt>
<pdfrwt beam="2">  1       21 0.44633969E-02 0.12500000E+03</pdfrwt>
<totfact> 0.83132882E+06</totfact>
</mgrwt>
</event>
<event>
 6      0 +9.8758382e+01 1.25000000e+02 7.54677100e-03 1.12640300e-01
       21 -1    0    0  502  501 +0.0000000000e+00 +0.0000000000e+00 +1.3353234797e+02 1.3353234797e+02 0.0000000000e+00 0.0000e+00 -1.0000e+00
       21 -1    0    0  501  502 -0.0000000000e+00 -0.0000000000e+00 -2.9253211371e+01 2.9253211371e+01 0.0000000000e+00 0.0000e+00 -1.0000e+00
       25  2    1    2    0    0 +0.0000000000e+00 +0.0000000000e+00 +1.0427913660e+02 1.6278555934e+02 1.2500000000e+02 0.0000e+00 0.0000e+00
      -15  1    3    3    0    0 +3.9657868309e+01 -2.7002964843e+01 +7.6301291681e+01 9.0149606046e+01 1.7770000000e+00 0.0000e+00 -1.0000e+00
       15  1    3    3    0    0 -2.3134848714e+01 +2.4439911374e+01 -6.4967220846e+00 3.4320483968e+01 1.7770000000e+00 0.0000e+00 -1.0000e+00
       22  1    3    3    0    0 -1.6523019595e+01 +2.5630534695e+00 +3.4474567005e+01 3.8315469328e+01 0.0000000000e+00 0.0000e+00 -1.0000e+00
<mgrwt>
<rscale>  2 0.12500000E+03</rscale>
<asrwt>0</asrwt>
<pdfrwt beam="1">  1       21 0.19637110E-01 0.12500000E+03</pdfrwt>
<pdfrwt beam="2">  1       21 0.43019429E-02 0.12500000E+03</pdfrwt>
<totfact> 0.82525639E+06</totfact>
</mgrwt>
</event>
<event>
 6      0 +9.8758382e+01 1.25000000e+02 7.54677100e-03 1.12640300e-01
       21 -1    0    0  502  501 +0.0000000000e+00 +0.0000000000e+00 +1.0407334783e+02 1.0407334783e+02 0.0000000000e+00 0.0000e+00 1.0000e+00
       21 -1    0    0  501  502 -0.0000000000e+00 -0.0000000000e+00 -3.7533624905e+01 3.7533624905e+01 0.0000000000e+00 0.0000e+00 1.0000e+00
       25  2    1    2    0    0 +0.0000000000e+00 +0.0000000000e+00 +6.6539722923e+01 1.4160697273e+02 1.2500000000e+02 0.0000e+00 0.0000e+00
      -15  1    3    3    0    0 +3.5993238533e+01 +4.5319429020e-01 +7.5038038423e+01 8.3244120180e+01 1.7770000000e+00 0.0000e+00 -1.0000e+00
       15  1    3    3    0    0 -1.9328218630e+01 -1.4970377483e+01 +1.2814124932e+01 2.7659569124e+01 1.7770000000e+00 0.0000e+00 -1.0000e+00
       22  1    3    3    0    0 -1.6665019903e+01 +1.4517183193e+01 -2.1312440431e+01 3.0703283429e+01 0.0000000000e+00 0.0000e+00 -1.0000e+00
<mgrwt>
<rscale>  2 0.12500000E+03</rscale>
<asrwt>0</asrwt>
<pdfrwt beam="1">  1       21 0.15304904E-01 0.12500000E+03</pdfrwt>
<pdfrwt beam="2">  1       21 0.55196507E-02 0.12500000E+03</pdfrwt>
<totfact> 0.86062038E+06</totfact>
</mgrwt>
</event>
<event>
 6      0 +9.8758382e+01 1.25000000e+02 7.54677100e-03 1.12640300e-01
       21 -1    0    0  502  501 +0.0000000000e+00 +0.0000000000e+00 +7.2569688831e+00 7.2569688831e+00 0.0000000000e+00 0.0000e+00 -1.0000e+00
       21 -1    0    0  501  502 -0.0000000000e+00 -0.0000000000e+00 -5.3827569925e+02 5.3827569925e+02 0.0000000000e+00 0.0000e+00 -1.0000e+00
       25  2    1    2    0    0 +0.0000000000e+00 +0.0000000000e+00 -5.3101873037e+02 5.4553266813e+02 1.2500000000e+02 0.0000e+00 0.0000e+00
      -15  1    3    3    0    0 -6.1886007009e+00 -9.4985238526e+00 -1.7370814655e+00 1.1605856925e+01 1.7770000000e+00 0.0000e+00 -1.0000e+00
       15  1    3    3    0    0 -1.6724661424e+01 +2.0955746178e+01 -9.0672940989e+01 9.4570595611e+01 1.7770000000e+00 0.0000e+00 -1.0000e+00
       22  1    3    3    0    0 +2.2913262125e+01 -1.1457222326e+01 -4.3860870803e+02 4.3935621571e+02 0.0000000000e+00 0.0000e+00 -1.0000e+00
<mgrwt>
<rscale>  2 0.12500000E+03</rscale>
<asrwt>0</asrwt>
<pdfrwt beam="1">  1       21 0.10672010E-02 0.12500000E+03</pdfrwt>
<pdfrwt beam="2">  1       21 0.79158212E-01 0.12500000E+03</pdfrwt>
<totfact> 0.42097175E+06</totfact>
</mgrwt>
</event>
<event>
 6      0 +9.8758382e+01 1.25000000e+02 7.54677100e-03 1.12640300e-01
       21 -1    0    0  502  501 +0.0000000000e+00 +0.0000000000e+00 +8.4375077489e+02 8.4375077489e+02 0.0000000000e+00 0.0000e+00 -1.0000e+00
       21 -1    0    0  501  502 -0.0000000000e+00 -0.0000000000e+00 -4.6296253778e+00 4.6296253778e+00 0.0000000000e+00 0.0000e+00 -1.0000e+00
       25  2    1    2    0    0 +0.0000000000e+00 +0.0000000000e+00 +8.3912114952e+02 8.4838040027e+02 1.2500000000e+02 0.0000e+00 0.0000e+00
      -15  1    3    3    0    0 +3.8532436767e+00 -3.0580827139e+01 +1.2527473961e+02 1.2902306998e+02 1.7770000000e+00 0.0000e+00 -1.0000e+00
       15  1    3    3    0    0 +4.1871654517e+00 -2.3648260197e+01 +4.0261000570e+02 4.0332957614e+02 1.7770000000e+00 0.0000e+00 -1.0000e+00
       22  1    3    3    0    0 -8.0404091284e+00 +5.4229087335e+01 +3.1123640447e+02 3.1602775441e+02 0.0000000000e+00 0.0000e+00 -1.0000e+00
<mgrwt>
<rscale>  2 0.12500000E+03</rscale>
<asrwt>0</asrwt>
<pdfrwt beam="1">  1       21 0.12408089E+00 0.12500000E+03</pdfrwt>
<pdfrwt beam="2">  1       21 0.68082785E-03 0.12500000E+03</pdfrwt>
<totfact> 0.26335832E+06</totfact>
</mgrwt>
</event>
<event>
 6      0 +9.8758382e+01 1.25000000e+02 7.54677100e-03 1.12640300e-01
       21 -1    0    0  502  501 +0.0000000000e+00 +0.0000000000e+00 +5.5860628454e+00 5.5860628454e+00 0.0000000000e+00 0.0000e+00 1.0000e+00
       21 -1    0    0  501  502 -0.0000000000e+00 -0.0000000000e+00 -6.9928500773e+02 6.9928500773e+02 0.0000000000e+00 0.0000e+00 1.0000e+00
       25  2    1    2    0    0 +0.0000000000e+00 +0.0000000000e+00 -6.9369894488e+02 7.0487107057e+02 1.2500000000e+02 0.0000e+00 0.0000e+00
      -15  1    3    3    0    0 +9.2620821124e+00 +7.7937725513e+00 -3.0003269635e+02 3.0028204353e+02 1.7770000000e+00 0.0000e+00 -1.0000e+00
       15  1    3    3    0    0 +3.0161963071e+01 +1.4788137387e+01 -2.8251599266e+02 2.8451164627e+02 1.7770000000e+00 0.0000e+00 -1.0000e+00
       22  1    3    3    0    0 -3.9424045184e+01 -2.2581909938e+01 -1.1115025589e+02 1.2007738080e+02 0.0000000000e+00 0.0000e+00 -1.0000e+00
<mgrwt>
<rscale>  2 0.12500000E+03</rscale>
<asrwt>0</asrwt>
<pdfrwt beam="1">  1       21 0.82148029E-03 0.12500000E+03</pdfrwt>
<pdfrwt beam="2">  1       21 0.10283597E+00 0.12500000E+03</pdfrwt>
<totfact> 0.32665555E+06</totfact>
</mgrwt>
</event>
<event>
 6      0 +9.8758382e+01 1.25000000e+02 7.54677100e-03 1.12640300e-01
       21 -1    0    0  502  501 +0.0000000000e+00 +0.0000000000e+00 +5.3070554957e+02 5.3070554957e+02 0.0000000000e+00 0.0000e+00 1.0000e+00
       21 -1    0    0  501  502 -0.0000000000e+00 -0.0000000000e+00 -7.3604845534e+00 7.3604845534e+00 0.0000000000e+00 0.0000e+00 1.0000e+00
       25  2    1    2    0    0 +0.0000000000e+00 +0.0000000000e+00 +5.2334506502e+02 5.3806603412e+02 1.2500000000e+02 0.0000e+00 0.0000e+00
      -15  1    3    3    0    0 -4.4509884348e+01 -2.0095849674e+00 +9.1137946231e+01 1.0146157503e+02 1.7770000000e+00 0.0000e+00 -1.0000e+00
       15  1    3    3    0    0 -8.4599680501e+00 +1.2689092953e+00 +7.0246443904e+01 7.0787723514e+01 1.7770000000e+00 0.0000e+00 -1.0000e+00
       22  1    3    3    0    0 +5.2969852398e+01 +7.4067567214e-01 +3.6196067500e+02 3.6581673569e+02 0.0000000000e+00 0.0000e+00 -1.0000e+00
<mgrwt>
<rscale>  2 0.12500000E+03</rscale>
<asrwt>0</asrwt>
<pdfrwt beam="1">  1       21 0.78044907E-01 0.12500000E+03</pdfrwt>
<pdfrwt beam="2">  1       21 0.10824246E-02 0.12500000E+03</pdfrwt>
<totfact> 0.42607612E+06</totfact>
</mgrwt>
</event>
<event>
 6      0 +9.8758382e+01 1.25000000e+02 7.54677100e-03 1.12640300e-01
       21 -1    0    0  502  501 +0.0000000000e+00 +0.0000000000e+00 +5.6333334452e+01 5.6333334452e+01 0.0000000000e+00 0.0000e+00 -1.0000e+00
       21 -1    0    0  501  502 -0.0000000000e+00 -0.0000000000e+00 -6.9341714599e+01 6.9341714599e+01 0.0000000000e+00 0.0000e+00 -1.0000e+00
       25  2    1    2    0    0 +0.0000000000e+00 +0.0000000000e+00 -1.3008380146e+01 1.2567504905e+02 1.2500000000e+02 0.0000e+00 0.0000e+00
      -15  1    3    3    0    0 +1.4596656269e+01 +2.6448799206e+00 +4.5585989191e+00 1.5620381465e+01 1.7770000000e+00 0.0000e+00 -1.0000e+00
       15  1    3    3    0    0 +2.5416054708e+01 +3.2836439549e+01 -3.4440987190e+01 5.3977281580e+01 1.7770000000e+00 0.0000e+00 -1.0000e+00
       22  1    3    3    0    0 -4.0012710976e+01 -3.5481319470e+01 +1.6874008125e+01 5.6077386005e+01 0.0000000000e+00 0.0000e+00 -1.0000e+00
<mgrwt>
<rscale>  2 0.12500000E+03</rscale>
<asrwt>0</asrwt>
<pdfrwt beam="1">  1       21 0.82843139E-02 0.12500000E+03</pdfrwt>
<pdfrwt beam="2">  1       21 0.10197311E-01 0.12500000E+03</pdfrwt>
<totfact> 0.88870998E+06</totfact>
</mgrwt>
</event>
<event>
 6      0 +9.8758382e+01 1.25000000e+02 7.54677100e-03 1.12640300e-01
       21 -1    0    0  502  501 +0.0000000000e+00 +0.0000000000e+00 +1.4565575982e+01 1.4565575982e+01 0.0000000000e+00 0.0000e+00 -1.0000e+00
       21 -1    0    0  501  502 -0.0000000000e+00 -0.0000000000e+00 -2.6818369591e+02 2.6818369591e+02 0.0000000000e+00 0.0000e+00 -1.0000e+00
       25  2    1    2    0    0 +0.0000000000e+00 +0.0000000000e+00 -2.5361811993e+02 2.8274927189e+02 1.2500000000e+02 0.0000e+00 0.0000e+00
      -15  1    3    3    0    0 +9.2213935390e+00 -1.6491386378e+01 -7.3429374575e+01 7.5842143317e+01 1.7770000000e+00 0.0000e+00 -1.0000e+00
       15  1    3    3    0    0 +4.4549418424e+01 -1.6664218946e+00 -7.1126218262e+01 8.3961445301e+01 1.7770000000e+00 0.0000e+00 -1.0000e+00
       22  1    3    3    0    0 -5.3770811963e+01 +1.8157808272e+01 -1.0906252711e+02 1.2294568329e+02 0.0000000000e+00 0.0000e+00 -1.0000e+00
<mgrwt>
<rscale>  2 0.12500000E+03</rscale>
<asrwt>0</asrwt>
<pdfrwt beam="1">  1       21 0.21419965E-02 0.12500000E+03</pdfrwt>
<pdfrwt beam="2">  1       21 0.39438778E-01 0.12500000E+03</pdfrwt>
<totfact> 0.65964262E+06</totfact>
</mgrwt>
</event>
<event>
 6      0 +9.8758382e+01 1.25000000e+02 7.54677100e-03 1.12640300e-01
       21 -1    0    0  502  501 +0.0000000000e+00 +0.0000000000e+00 +2.3791887122e+01 2.3791887122e+01 0.0000000000e+00 0.0000e+00 1.0000e+00
       21 -1    0    0  501  502 -0.0000000000e+00 -0.0000000000e+00 -1.6418411788e+02 1.6418411788e+02 0.0000000000e+00 0.0000e+00 1.0000e+00
       25  2    1    2    0    0 +0.0000000000e+00 +0.0000000000e+00 -1.4039223076e+02 1.8797600501e+02 1.2500000000e+02 0.0000e+00 0.0000e+00
      -15  1    3    3    0    0 -8.8140040772e+00 -1.5265076002e+01 -4.1356994429e+01 4.4991865158e+01 1.7770000000e+00 0.0000e+00 -1.0000e+00
       15  1    3    3    0    0 -4.2488986070e+01 -1.3111378614e+01 -4.2105967941e+01 6.1264120426e+01 1.7770000000e+00 0.0000e+00 -1.0000e+00
       22  1    3    3    0    0 +5.1302990147e+01 +2.8376454616e+01 -5.6929268382e+01 8.1720019415e+01 0.0000000000e+00 0.0000e+00 -1.0000e+00
<mgrwt>
<rscale>  2 0.12500000E+03</rscale>
<asrwt>0</asrwt>
<pdfrwt beam="1">  1       21 0.34988068E-02 0.12500000E+03</pdfrwt>
<pdfrwt beam="2">  1       21 0.24144724E-01 0.12500000E+03</pdfrwt>
<totfact> 0.78600162E+06</totfact>
</mgrwt>
</event>
<event>
 6      0 +9.8758382e+01 1.25000000e+02 7.54677100e-03 1.12640300e-01
       21 -1    0    0  502  501 +0.0000000000e+00 +0.0000000000e+00 +1.3604802663e+02 1.3604802663e+02 0.0000000000e+00 0.0000e+00 -1.0000e+00
       21 -1    0    0  501  502 -0.0000000000e+00 -0.0000000000e+00 -2.8712287100e+01 2.8712287100e+01 0.0000000000e+00 0.0000e+00 -1.0000e+00
       25  2    1    2    0    0 +0.0000000000e+00 +0.0000000000e+00 +1.0733573953e+02 1.6476031373e+02 1.2500000000e+02 0.0000e+00 0.0000e+00
      -15  1    3    3    0    0 +2.9142847952e+01 -4.8304987354e+01 +2.0850557845e+01 6.0171262920e+01 1.7770000000e+00 0.0000e+00 -1.0000e+00
       15  1    3    3    0    0 -4.7029954406e+00 +2.5733992343e+00 +1.6833063157e+01 1.7755289183e+01 1.7770000000e+00 0.0000e+00 -1.0000e+00
       22  1    3    3    0    0 -2.4439852512e+01 +4.5731588119e+01 +6.9652118527e+01 8.6833761626e+01 0.0000000000e+00 0.0000e+00 -1.0000e+00
<mgrwt>
<rscale>  2 0.12500000E+03</rscale>
<asrwt>0</asrwt>
<pdfrwt beam="1">  1       21 0.20007063E-01 0.12500000E+03</pdfrwt>
<pdfrwt beam="2">  1       21 0.42223952E-02 0.12500000E+03</pdfrwt>
<totfact> 0.82205103E+06</totfact>
</mgrwt>
</event>
<event>
 6      0 +9.8758382e+01 1.25000000e+02 7.54677100e-03 1.12640300e-01
       21 -1    0    0  502  501 +0.0000000000e+00 +0.0000000000e+00 +3.7752901554e+01 3.7752901554e+01 0.0000000000e+00 0.0000e+00 1.0000e+00
       21 -1    0    0  501  502 -0.0000000000e+00 -0.0000000000e+00 -1.0346886833e+02 1.0346886833e+02 0.0000000000e+00 0.0000e+00 1.0000e+00
       25  2    1    2    0    0 +0.0000000000e+00 +0.0000000000e+00 -6.5715966778e+01 1.4122176989e+02 1.2500000000e+02 0.0000e+00 0.0000e+00
      -15  1    3    3    0    0 +8.2210999947e+00 -6.8788676514e+00 +6.2637938349e+00 1.2541855823e+01 1.7770000000e+00 0.0000e+00 -1.0000e+00
       15  1    3    3    0    0 -2.1644383983e+01 -3.2933726524e+01 -7.6850007204e+01 8.6383974423e+01 1.7770000000e+00 0.0000e+00 -1.0000e+00
       22  1    3    3    0    0 +1.3423283988e+01 +3.9812594176e+01 +4.8702465937e+00 4.2295939638e+01 0.0000000000e+00 0.0000e+00 -1.0000e+00
<mgrwt>
<rscale>  2 0.12500000E+03</rscale>
<asrwt>0</asrwt>
<pdfrwt beam="1">  1       21 0.55518974E-02 0.12500000E+03</pdfrwt>
<pdfrwt beam="2">  1       21 0.15216010E-01 0.12500000E+03</pdfrwt>
<totfact> 0.86128818E+06</totfact>
</mgrwt>
</event>
<event>
 6      0 +9.8758382e+01 1.25000000e+02 7.54677100e-03 1.12640300e-01
       21 -1    0    0  502  501 +0.0000000000e+00 +0.0000000000e+00 +6.7088942171e+01 6.7088942171e+01 0.0000000000e+00 0.0000e+00 -1.0000e+00
       21 -1    0    0  501  502 -0.0000000000e+00 -0.0000000000e+00 -5.8224945477e+01 5.8224945477e+01 0.0000000000e+00 0.0000e+00 -1.0000e+00
       25  2    1    2    0    0 +0.0000000000e+00 +0.0000000000e+00 +8.8639966946e+00 1.2531388765e+02 1.2500000000e+02 0.0000e+00 0.0000e+00
      -15  1    3    3    0    0 -1.6560727560e+01 +3.9964326450e+01 -2.3173912148e+00 4.3358195499e+01 1.7770000000e+00 0.0000e+00 -1.0000e+00
       15  1    3    3    0    0 -1.7860926461e+01 +6.6884562570e+00 +1.4286172995e+01 2.3895619033e+01 1.7770000000e+00 0.0000e+00 -1.0000e+00
       22  1    3    3    0    0 +3.4421654020e+01 -4.6652782707e+01 -3.1047850855e+00 5.8060073116e+01 0.0000000000e+00 0.0000e+00 -1.0000e+00
<mgrwt>
<rscale>  2 0.12500000E+03</rscale>
<asrwt>0</asrwt>
<pdfrwt beam="1">  1       21 0.98660209E-02 0.12500000E+03</pdfrwt>
<pdfrwt beam="2">  1       21 0.85624920E-02 0.12500000E+03</pdfrwt>
<totfact> 0.88938628E+06</totfact>
</mgrwt>
</event>
<event>
 6      0 +9.8758382e+01 1.25000000e+02 7.54677100e-03 1.12640300e-01
       21 -1    0    0  502  501 +0.0000000000e+00 +0.0000000000e+00 +1.3365619389e+01 1.3365619389e+01 0.0000000000e+00 0.0000e+00 -1.0000e+00
       21 -1    0    0  501  502 -0.0000000000e+00 -0.0000000000e+00 -2.9226105325e+02 2.9226105325e+02 0.0000000000e+00 0.0000e+00 -1.0000e+00
       25  2    1    2    0    0 +0.0000000000e+00 +0.0000000000e+00 -2.7889543386e+02 3.0562667264e+02 1.2500000000e+02 0.0000e+00 0.0000e+00
      -15  1    3    3    0    0 -1.7811897703e+01 +8.3800550326e+00 -3.9325944424e+00 2.0152221966e+01 1.7770000000e+00 0.0000e+00 -1.0000e+00
       15  1    3    3    0    0 +6.9448498662e+00 -1.3737751994e+01 -6.6072408098e+00 1.6845478018e+01 1.7770000000e+00 0.0000e+00 -1.0000e+00
       22  1    3    3    0    0 +1.0867047837e+01 +5.3576969614e+00 -2.6835559860e+02 2.6862897265e+02 0.0000000000e+00 0.0000e+00 -1.0000e+00
<mgrwt>
<rscale>  2 0.12500000E+03</rscale>
<asrwt>0</asrwt>
<pdfrwt beam="1">  1       21 0.19655324E-02 0.12500000E+03</pdfrwt>
<pdfrwt beam="2">  1       21 0.42979563E-01 0.12500000E+03</pdfrwt>
<totfact> 0.63307935E+06</totfact>
</mgrwt>
</event>
<event>
 6      0 +9.8758382e+01 1.25000000e+02 7.54677100e-03 1.12640300e-01
       21 -1    0    0  502  501 +0.0000000000e+00 +0.0000000000e+00 +1.1423152426e+01 1.1423152426e+01 0.0000000000e+00 0.0000e+00 1.0000e+00
       21 -1    0    0  501  502 -0.0000000000e+00 -0.0000000000e+00 -3.4195901921e+02 3.4195901921e+02 0.0000000000e+00 0.0000e+00 1.0000e+00
       25  2    1    2    0    0 +0.0000000000e+00 +0.0000000000e+00 -3.3053586679e+02 3.5338217164e+02 1.2500000000e+02 0.0000e+00 0.0000e+00
      -15  1    3    3    0    0 -1.2334040759e+00 +2.7203073928e+00 -2.2382202206e+02 2.2384900412e+02 1.7770000000e+00 0.0000e+00 -1.0000e+00
       15  1    3    3    0    0 +1.4988186565e+01 +2.3462631376e+00 -1.1267759328e+02 1.1370817228e+02 1.7770000000e+00 0.0000e+00 -1.0000e+00
       22  1    3    3    0    0 -1.3754782489e+01 -5.0665705304e+00 +5.9637485322e+00 1.5824995257e+01 0.0000000000e+00 0.0000e+00 -1.0000e+00
<mgrwt>
<rscale>  2 0.12500000E+03</rscale>
<asrwt>0</asrwt>
<pdfrwt beam="1">  1       21 0.16798755E-02 0.12500000E+03</pdfrwt>
<pdfrwt beam="2">  1       21 0.50288086E-01 0.12500000E+03</pdfrwt>
<totfact> 0.58183666E+06</totfact>
</mgrwt>
</event>
<event>
 6      0 +9.8758382e+01 1.25000000e+02 7.54677100e-03 1.12640300e-01
       21 -1    0    0  502  501 +0.0000000000e+00 +0.0000000000e+00 +1.5010770943e+02 1.5010770943e+02 0.0000000000e+00 0.0000e+00 -1.0000e+00
       21 -1    0    0  501  502 -0.0000000000e+00 -0.0000000000e+00 -2.6022980531e+01 2.6022980531e+01 0.0000000000e+00 0.0000e+00 -1.0000e+00
       25  2    1    2    0    0 +0.0000000000e+00 +0.0000000000e+00 +1.2408472890e+02 1.7613068996e+02 1.2500000000e+02 0.0000e+00 0.0000e+00
      -15  1    3    3    0    0 -2.4530426536e+01 +1.0482839061e+01 +1.9083435424e+01 3.2847632752e+01 1.7770000000e+00 0.0000e+00 -1.0000e+00
       15  1    3    3    0    0 -3.0657680889e+01 -1.2738956846e+01 +7.1062463174e+01 7.8455119784e+01 1.7770000000e+00 0.0000e+00 -1.0000e+00
       22  1    3    3    0    0 +5.5188107425e+01 +2.2561177849e+00 +3.3938830304e+01 6.4827937426e+01 0.0000000000e+00 0.0000e+00 -1.0000e+00
<mgrwt>
<rscale>  2 0.12500000E+03</rscale>
<asrwt>0</asrwt>
<pdfrwt beam="1">  1       21 0.22074663E-01 0.12500000E+03</pdfrwt>
<pdfrwt beam="2">  1       21 0.38269090E-02 0.12500000E+03</pdfrwt>
<totfact> 0.80402482E+06</totfact>
</mgrwt>
</event>
<event>
 6      0 +9.8758382e+01 1.25000000e+02 7.54677100e-03 1.12640300e-01
       21 -1    0    0  502  501 +0.0000000000e+00 +0.0000000000e+00 +2.7073737840e+01 2.7073737840e+01 0.0000000000e+00 0.0000e+00 -1.0000e+00
       21 -1    0    0  501  502 -0.0000000000e+00 -0.0000000000e+00 -1.4428188760e+02 1.4428188760e+02 0.0000000000e+00 0.0000e+00 -1.0000e+00
       25  2    1    2    0    0 +0.0000000000e+00 +0.0000000000e+00 -1.1720814976e+02 1.7135562544e+02 1.2500000000e+02 0.0000e+00 0.0000e+00
      -15  1    3    3    0    0 -2.4770398277e+01 +1.9373563453e+01 -2.0392470179e+01 3.7522235551e+01 1.7770000000e+00 0.0000e+00 -1.0000e+00
       15  1    3    3    0    0 -2.8950480892e+01 -2.0673329366e+01 -5.5940170853e+01 6.6317247643e+01 1.7770000000e+00 0.0000e+00 -1.0000e+00
       22  1    3    3    0    0 +5.3720879169e+01 +1.2997659127e+00 -4.0875508730e+01 6.7516142249e+01 0.0000000000e+00 0.0000e+00 -1.0000e+00
<mgrwt>
<rscale>  2 0.12500000E+03</rscale>
<asrwt>0</asrwt>
<pdfrwt beam="1">  1       21 0.39814321E-02 0.12500000E+03</pdfrwt>
<pdfrwt beam="2">  1       21 0.21217924E-01 0.12500000E+03</pdfrwt>
<totfact> 0.81149594E+06</totfact>
</mgrwt>
</event>
<event>
 6      0 +9.8758382e+01 1.25000000e+02 7.54677100e-03 1.12640300e-01
       21 -1    0    0  502  501 +0.0000000000e+00 +0.0000000000e+00 +1.6370424603e+02 1.6370424603e+02 0.0000000000e+00 0.0000e+00 -1.0000e+00
       21 -1    0    0  501  502 -0.0000000000e+00 -0.0000000000e+00 -2.3861629095e+01 2.3861629095e+01 0.0000000000e+00 0.0000e+00 -1.0000e+00
       25  2    1    2    0    0 +0.0000000000e+00 +0.0000000000e+00 +1.3984261693e+02 1.8756587512e+02 1.2500000000e+02 0.0000e+00 0.0000e+00
      -15  1    3    3    0    0 +3.8723747578e+00 -8.3944431869e+00 +2.5529143121e+01 2.7209499080e+01 1.7770000000e+00 0.0000e+00 -1.0000e+00
       15  1    3    3    0    0 +1.8282091693e+01 -4.3518757932e+01 +2.1892318147e+01 5.2062928188e+01 1.7770000000e+00 0.0000e+00 -1.0000e+00
       22  1    3    3    0    0 -2.2154466451e+01 +5.1913201119e+01 +9.2421155663e+01 1.0829344785e+02 0.0000000000e+00 0.0000e+00 -1.0000e+00
<mgrwt>
<rscale>  2 0.12500000E+03</rscale>
<asrwt>0</asrwt>
<pdfrwt beam="1">  1       21 0.24074153E-01 0.12500000E+03</pdfrwt>
<pdfrwt beam="2">  1       21 0.35090632E-02 0.12500000E+03</pdfrwt>
<totfact> 0.78661604E+06</totfact>
</mgrwt>
</event>
<event>
 6      0 +9.8758382e+01 1.25000000e+02 7.54677100e-03 1.12640300e-01
       21 -1    0    0  502  501 +0.0000000000e+00 +0.0000000000e+00 +3.9225714493e+01 3.9225714493e+01 0.0000000000e+00 0.0000e+00 -1.0000e+00
       21 -1    0    0  501  502 -0.0000000000e+00 -0.0000000000e+00 -9.9583909445e+01 9.9583909445e+01 0.0000000000e+00 0.0000e+00 -1.0000e+00
       25  2    1    2    0    0 +0.0000000000e+00 +0.0000000000e+00 -6.0358194952e+01 1.3880962394e+02 1.2500000000e+02 0.0000e+00 0.0000e+00
      -15  1    3    3    0    0 -3.2301348746e+01 -1.7069533924e+01 +2.0955652056e+01 4.2154990229e+01 1.7770000000e+00 0.0000e+00 -1.0000e+00
       15  1    3    3    0    0 +1.5575135630e+01 -1.1249549696e+01 -2.7740799248e+01 3.3791225047e+01 1.7770000000e+00 0.0000e+00 -1.0000e+00
       22  1    3    3    0    0 +1.6726213116e+01 +2.8319083620e+01 -5.3573047759e+01 6.2863408661e+01 0.0000000000e+00 0.0000e+00 -1.0000e+00
<mgrwt>
<rscale>  2 0.12500000E+03</rscale>
<asrwt>0</asrwt>
<pdfrwt beam="1">  1       21 0.57684875E-02 0.12500000E+03</pdfrwt>
<pdfrwt beam="2">  1       21 0.14644692E-01 0.12500000E+03</pdfrwt>
<totfact> 0.86545842E+06</totfact>
</mgrwt>
</event>
<event>
 6      0 +9.8758382e+01 1.25000000e+02 7.54677100e-03 1.12640300e-01
       21 -1    0    0  502  501 +0.0000000000e+00 +0.0000000000e+00 +2.7307853746e+01 2.7307853746e+01 0.0000000000e+00 0.0000e+00 -1.0000e+00
       21 -1    0    0  501  502 -0.0000000000e+00 -0.0000000000e+00 -1.4304492899e+02 1.4304492899e+02 0.0000000000e+00 0.0000e+00 -1.0000e+00
       25  2    1    2    0    0 +0.0000000000e+00 +0.0000000000e+00 -1.1573707524e+02 1.7035278274e+02 1.2500000000e+02 0.0000e+00 0.0000e+00
      -15  1    3    3    0    0 +2.3095912179e+01 +6.4560080641e+00 -6.5183373490e+00 2.4914807852e+01 1.7770000000e+00 0.0000e+00 -1.0000e+00
       15  1    3    3    0    0 +9.8349780814e+00 -1.9513234887e+01 +7.7261716172e+00 2.3245313216e+01 1.7770000000e+00 0.0000e+00 -1.0000e+00
       22  1    3    3    0    0 -3.2930890260e+01 +1.3057226823e+01 -1.1694490950e+02 1.2219266166e+02 0.0000000000e+00 0.0000e+00 -1.0000e+00
<mgrwt>
<rscale>  2 0.12500000E+03</rscale>
<asrwt>0</asrwt>
<pdfrwt beam="1">  1       21 0.40158608E-02 0.12500000E+03</pdfrwt>
<pdfrwt beam="2">  1       21 0.21036019E-01 0.12500000E+03</pdfrwt>
<totfact> 0.81308242E+06</totfact>
</mgrwt>
</event>
<event>
 6      0 +9.8758382e+01 1.25000000e+02 7.54677100e-03 1.12640300e-01
       21 -1    0    0  502  501 +0.0000000000e+00 +0.0000000000e+00 +1.5025863200e+03 1.5025863200e+03 0.0000000000e+00 0.0000e+00 1.0000e+00
       21 -1    0    0  501  502 -0.0000000000e+00 -0.0000000000e+00 -2.5996842565e+00 2.5996842565e+00 0.0000000000e+00 0.0000e+00 1.0000e+00
       25  2    1    2    0    0 +0.0000000000e+00 +0.0000000000e+00 +1.4999866357e+03 1.5051860042e+03 1.2500000000e+02 0.0000e+00 0.0000e+00
      -15  1    3    3    0    0 +2.1280294073e+01 -2.0624714765e+01 +1.2040188050e+02 1.2400806559e+02 1.7770000000e+00 0.0000e+00 -1.0000e+00
       15  1    3    3    0    0 +1.5096455269e+01 +2.0920432679e+01 +8.2266971409e+02 8.2307604975e+02 1.7770000000e+00 0.0000e+00 -1.0000e+00
       22  1    3    3    0    0 -3.6376749342e+01 -2.9571791380e-01 +5.5691504297e+02 5.5810189072e+02 0.0000000000e+00 0.0000e+00 -1.0000e+00
<mgrwt>
<rscale>  2 0.12500000E+03</rscale>
<asrwt>0</asrwt>
<pdfrwt beam="1">  1       21 0.22096797E+00 0.12500000E+03</pdfrwt>
<pdfrwt beam="2">  1       21 0.38230756E-03 0.12500000E+03</pdfrwt>
<totfact> 0.10538258E+06</totfact>
</mgrwt>
</event>
<event>
 6      0 +9.8758382e+01 1.25000000e+02 7.54677100e-03 1.12640300e-01
       21 -1    0    0  502  501 +0.0000000000e+00 +0.0000000000e+00 +9.8337048361e+01 9.8337048361e+01 0.0000000000e+00 0.0000e+00 1.0000e+00
       21 -1    0    0  501  502 -0.0000000000e+00 -0.0000000000e+00 -3.9723075536e+01 3.9723075536e+01 0.0000000000e+00 0.0000e+00 1.0000e+00
       25  2    1    2    0    0 +0.0000000000e+00 +0.0000000000e+00 +5.8613972825e+01 1.3806012390e+02 1.2500000000e+02 0.0000e+00 0.0000e+00
      -15  1    3    3    0    0 -4.0094212318e+01 +2.3045743762e+01 +4.9467396921e+00 4.6543314552e+01 1.7770000000e+00 0.0000e+00 -1.0000e+00
       15  1    3    3    0    0 +3.1232365923e+01 -2.7961230847e+01 +5.5254035610e+00 4.2319958945e+01 1.7770000000e+00 0.0000e+00 -1.0000e+00
       22  1    3    3    0    0 +8.8618463947e+00 +4.9154870848e+00 +4.8141829570e+01 4.9196850399e+01 0.0000000000e+00 0.0000e+00 -1.0000e+00
<mgrwt>
<rscale>  2 0.12500000E+03</rscale>
<asrwt>0</asrwt>
<pdfrwt beam="1">  1       21 0.14461331E-01 0.12500000E+03</pdfrwt>
<pdfrwt beam="2">  1       21 0.58416288E-02 0.12500000E+03</pdfrwt>
<totfact> 0.86674960E+06</totfact>
</mgrwt>
</event>
<event>
 6      0 +9.8758382e+01 1.25000000e+02 7.54677100e-03 1.12640300e-01
       21 -1    0    0  502  501 +0.0000000000e+00 +0.0000000000e+00 +3.4174591544e+01 3.4174591544e+01 0.0000000000e+00 0.0000e+00 -1.0000e+00
       21 -1    0    0  501  502 -0.0000000000e+00 -0.0000000000e+00 -1.1430275604e+02 1.1430275604e+02 0.0000000000e+00 0.0000e+00 -1.0000e+00
       25  2    1    2    0    0 +0.0000000000e+00 +0.0000000000e+00 -8.0128164494e+01 1.4847734758e+02 1.2500000000e+02 0.0000e+00 0.0000e+00
      -15  1    3    3    0    0 -3.4069817978e+01 -1.8694222197e+01 -3.4028614183e+01 5.1684918040e+01 1.7770000000e+00 0.0000e+00 -1.0000e+00
       15  1    3    3    0    0 +2.2213158635e+01 -2.6549083063e+01 -3.3839445606e+01 4.8441139911e+01 1.7770000000e+00 0.0000e+00 -1.0000e+00
       22  1    3    3    0    0 +1.1856659343e+01 +4.5243305260e+01 -1.2260104707e+01 4.8351289632e+01 0.0000000000e+00 0.0000e+00 -1.0000e+00
<mgrwt>
<rscale>  2 0.12500000E+03</rscale>
<asrwt>0</asrwt>
<pdfrwt beam="1">  1       21 0.50256752E-02 0.12500000E+03</pdfrwt>
<pdfrwt beam="2">  1       21 0.16809229E-01 0.12500000E+03</pdfrwt>
<totfact> 0.84881713E+06</totfact>
</mgrwt>
</event>
<event>
 6      0 +9.8758382e+01 1.25000000e+02 7.54677100e-03 1.12640300e-01
       21 -1    0    0  502  501 +0.0000000000e+00 +0.0000000000e+00 +1.3626453246e+02 1.3626453246e+02 0.0000000000e+00 0.0000e+00 1.0000e+00
       21 -1    0    0  501  502 -0.0000000000e+00 -0.0000000000e+00 -2.8666667177e+01 2.8666667177e+01 0.0000000000e+00 0.0000e+00 1.0000e+00
       25  2    1    2    0    0 +0.0000000000e+00 +0.0000000000e+00 +1.0759786528e+02 1.6493119964e+02 1.2500000000e+02 0.0000e+00 0.0000e+00
      -15  1    3    3    0    0 -2.9079320670e-01 +2.0050058704e+01 +5.2700117791e+00 2.0809136644e+01 1.7770000000e+00 0.0000e+00 -1.0000e+00
       15  1    3    3    0    0 +4.1080162157e+01 -3.7386601637e+01 +6.9394217466e+01 8.8904740321e+01 1.7770000000e+00 0.0000e+00 -1.0000e+00
       22  1    3    3    0    0 -4.0789368951e+01 +1.7336542933e+01 +3.2933636027e+01 5.5217322664e+01 0.0000000000e+00 0.0000e+00 -1.0000e+00
<mgrwt>
<rscale>  2 0.12500000E+03</rscale>
<asrwt>0</asrwt>
<pdfrwt beam="1">  1       21 0.20038902E-01 0.12500000E+03</pdfrwt>
<pdfrwt beam="2">  1       21 0.42156864E-02 0.12500000E+03</pdfrwt>
<totfact> 0.82177389E+06</totfact>
</mgrwt>
</event>
<event>
 6      0 +9.8758382e+01 1.25000000e+02 7.54677100e-03 1.12640300e-01
       21 -1    0    0  502  501 +0.0000000000e+00 +0.0000000000e+00 +5.9368739098e+01 5.9368739098e+01 0.0000000000e+00 0.0000e+00 1.0000e+00
       21 -1    0    0  501  502 -0.0000000000e+00 -0.0000000000e+00 -6.5796411703e+01 6.5796411703e+01 0.0000000000e+00 0.0000e+00 1.0000e+00
       25  2    1    2    0    0 +0.0000000000e+00 +0.0000000000e+00 -6.4276726051e+00 1.2516515080e+02 1.2500000000e+02 0.0000e+00 0.0000e+00
      -15  1    3    3    0    0 +1.2192152970e+00 -4.0112428996e+01 +1.6082254978e+00 4.0202457190e+01 1.7770000000e+00 0.0000e+00 -1.0000e+00
       15  1    3    3    0    0 -1.8987740138e+01 +1.2565452826e+01 +2.8075845873e+01 3.6191652777e+01 1.7770000000e+00 0.0000e+00 -1.0000e+00
       22  1    3    3    0    0 +1.7768524841e+01 +2.7546976170e+01 -3.6111743975e+01 4.8771040834e+01 0.0000000000e+00 0.0000e+00 -1.0000e+00
<mgrwt>
<rscale>  2 0.12500000E+03</rscale>
<asrwt>0</asrwt>
<pdfrwt beam="1">  1       21 0.87306969E-02 0.12500000E+03</pdfrwt>
<pdfrwt beam="2">  1       21 0.96759429E-02 0.12500000E+03</pdfrwt>
<totfact> 0.88967736E+06</totfact>
</mgrwt>
</event>
<event>
 6      0 +9.8758382e+01 1.25000000e+02 7.54677100e-03 1.12640300e-01
       21 -1    0    0  502  501 +0.0000000000e+00 +0.0000000000e+00 +6.7307219220e+00 6.7307219220e+00 0.0000000000e+00 0.0000e+00 -1.0000e+00
       21 -1    0    0  501  502 -0.0000000000e+00 -0.0000000000e+00 -5.8036122206e+02 5.8036122206e+02 0.0000000000e+00 0.0000e+00 -1.0000e+00
       25  2    1    2    0    0 +0.0000000000e+00 +0.0000000000e+00 -5.7363050014e+02 5.8709194398e+02 1.2500000000e+02 0.0000e+00 0.0000e+00
      -15  1    3    3    0    0 -2.4180015094e+01 -5.0346927015e+01 -2.5040408031e+02 2.5656353474e+02 1.7770000000e+00 0.0000e+00 -1.0000e+00
       15  1    3    3    0    0 -6.7387590398e+00 -2.2297156855e+00 -2.1876317386e+01 2.3067585413e+01 1.7770000000e+00 0.0000e+00 -1.0000e+00
       22  1    3    3    0    0 +3.0918774134e+01 +5.2576642701e+01 -3.0135010253e+02 3.0746082392e+02 0.0000000000e+00 0.0000e+00 -1.0000e+00
<mgrwt>
<rscale>  2 0.12500000E+03</rscale>
<asrwt>0</asrwt>
<pdfrwt beam="1">  1       21 0.98981133E-03 0.12500000E+03</pdfrwt>
<pdfrwt beam="2">  1       21 0.85347300E-01 0.12500000E+03</pdfrwt>
<totfact> 0.39352737E+06</totfact>
</mgrwt>
</event>
<event>
 6      0 +9.8758382e+01 1.25000000e+02 7.54677100e-03 1.12640300e-01
       21 -1    0    0  502  501 +0.0000000000e+00 +0.0000000000e+00 +3.0054746908e+01 3.0054746908e+01 0.0000000000e+00 0.0000e+00 -1.0000e+00
       21 -1    0    0  501  502 -0.0000000000e+00 -0.0000000000e+00 -1.2997114938e+02 1.2997114938e+02 0.0000000000e+00 0.0000e+00 -1.0000e+00
       25  2    1    2    0    0 +0.0000000000e+00 +0.0000000000e+00 -9.9916402472e+01 1.6002589629e+02 1.2500000000e+02 0.0000e+00 0.0000e+00
      -15  1    3    3    0    0 -1.0485460484e+01 +5.9046376803e+00 -1.2008574571e+01 1.7093075204e+01 1.7770000000e+00 0.0000e+00 -1.0000e+00
       15  1    3    3    0    0 +3.4028752044e+01 -3.8432465769e+01 -8.9006858021e+01 1.0276375282e+02 1.7770000000e+00 0.0000e+00 -1.0000e+00
       22  1    3    3    0    0 -2.3543291560e+01 +3.2527828089e+01 +1.0990301205e+00 4.0169068260e+01 0.0000000000e+00 0.0000e+00 -1.0000e+00
<mgrwt>
<rscale>  2 0.12500000E+03</rscale>
<asrwt>0</asrwt>
<pdfrwt beam="1">  1       21 0.44198158E-02 0.12500000E+03</pdfrwt>
<pdfrwt beam="2">  1       21 0.19113404E-01 0.12500000E+03</pdfrwt>
<totfact> 0.82974447E+06</totfact>
</mgrwt>
</event>
<event>
 6      0 +9.8758382e+01 1.25000000e+02 7.54677100e-03 1.12640300e-01
       21 -1    0    0  502  501 +0.0000000000e+00 +0.0000000000e+00 +1.8810780876e+01 1.8810780876e+01 0.0000000000e+00 0.0000e+00 -1.0000e+00
       21 -1    0    0  501  502 -0.0000000000e+00 -0.0000000000e+00 -2.0766017242e+02 2.0766017242e+02 0.0000000000e+00 0.0000e+00 -1.0000e+00
       25  2    1    2    0    0 +0.0000000000e+00 +0.0000000000e+00 -1.8884939155e+02 2.2647095330e+02 1.2500000000e+02 0.0000e+00 0.0000e+00
      -15  1    3    3    0    0 +1.0161437453e+01 -3.9549692882e+01 -5.2997265024e+01 6.6927579123e+01 1.7770000000e+00 0.0000e+00 -1.0000e+00
       15  1    3    3    0    0 +3.4984826735e+00 +5.8990957270e+01 -8.6560490995e+01 1.0482389399e+02 1.7770000000e+00 0.0000e+00 -1.0000e+00
       22  1    3    3    0    0 -1.3659920126e+01 -1.9441264388e+01 -4.9291635533e+01 5.4719480192e+01 0.0000000000e+00 0.0000e+00 -1.0000e+00
<mgrwt>
<rscale>  2 0.12500000E+03</rscale>
<asrwt>0</asrwt>
<pdfrwt beam="1">  1       21 0.27662914E-02 0.12500000E+03</pdfrwt>
<pdfrwt beam="2">  1       21 0.30538259E-01 0.12500000E+03</pdfrwt>
<totfact> 0.73112579E+06</totfact>
</mgrwt>
</event>
<event>
 6      0 +9.8758382e+01 1.25000000e+02 7.54677100e-03 1.12640300e-01
       21 -1    0    0  502  501 +0.0000000000e+00 +0.0000000000e+00 +1.2311505077e+02 1.2311505077e+02 0.0000000000e+00 0.0000e+00 1.0000e+00
       21 -1    0    0  501  502 -0.0000000000e+00 -0.0000000000e+00 -3.1728452173e+01 3.1728452173e+01 0.0000000000e+00 0.0000e+00 1.0000e+00
       25  2    1    2    0    0 +0.0000000000e+00 +0.0000000000e+00 +9.1386598594e+01 1.5484350294e+02 1.2500000000e+02 0.0000e+00 0.0000e+00
      -15  1    3    3    0    0 -3.0989502010e+00 -1.0690608372e+01 -2.7121256593e+01 2.9370272181e+01 1.7770000000e+00 0.0000e+00 -1.0000e+00
       15  1    3    3    0    0 -1.6970875411e+01 -2.0809881521e+00 +5.6567592220e+01 5.9121834735e+01 1.7770000000e+00 0.0000e+00 -1.0000e+00
       22  1    3    3    0    0 +2.0069825612e+01 +1.2771596524e+01 +6.1940262967e+01 6.6351396023e+01 0.0000000000e+00 0.0000e+00 -1.0000e+00
<mgrwt>
<rscale>  2 0.12500000E+03</rscale>
<asrwt>0</asrwt>
<pdfrwt beam="1">  1       21 0.18105154E-01 0.12500000E+03</pdfrwt>
<pdfrwt beam="2">  1       21 0.46659489E-02 0.12500000E+03</pdfrwt>
<totfact> 0.83821165E+06</totfact>
</mgrwt>
</event>
<event>
 6      0 +9.8758382e+01 1.25000000e+02 7.54677100e-03 1.12640300e-01
       21 -1    0    0  502  501 +0.0000000000e+00 +0.0000000000e+00 +8.8650566302e+02 8.8650566302e+02 0.0000000000e+00 0.0000e+00 -1.0000e+00
       21 -1    0    0  501  502 -0.0000000000e+00 -0.0000000000e+00 -4.4063452304e+00 4.4063452304e+00 0.0000000000e+00 0.0000e+00 -1.0000e+00
       25  2    1    2    0    0 +0.0000000000e+00 +0.0000000000e+00 +8.8209931779e+02 8.9091200825e+02 1.2500000000e+02 0.0000e+00 0.0000e+00
      -15  1    3    3    0    0 -4.0125844797e+01 -1.3470754119e+01 +1.4025489172e+02 1.4651326567e+02 1.7770000000e+00 0.0000e+00 -1.0000e+00
       15  1    3    3    0    0 -2.7800697209e+00 +1.7741004375e+01 +1.8001391997e+02 1.8091611629e+02 1.7770000000e+00 0.0000e+00 -1.0000e+00
       22  1    3    3    0    0 +4.2905914518e+01 -4.2702502562e+00 +5.6183050615e+02 5.6348262633e+02 0.0000000000e+00 0.0000e+00 -1.0000e+00
<mgrwt>
<rscale>  2 0.12500000E+03</rscale>
<asrwt>0</asrwt>
<pdfrwt beam="1">  1       21 0.13036836E+00 0.12500000E+03</pdfrwt>
<pdfrwt beam="2">  1       21 0.64799256E-03 0.12500000E+03</pdfrwt>
<totfact> 0.24752979E+06</totfact>
</mgrwt>
</event>
<event>
 6      0 +9.8758382e+01 1.25000000e+02 7.54677100e-03 1.12640300e-01
       21 -1    0    0  502  501 +0.0000000000e+00 +0.0000000000e+00 +7.0340615633e+01 7.0340615633e+01 0.0000000000e+00 0.0000e+00 1.0000e+00
       21 -1    0    0  501  502 -0.0000000000e+00 -0.0000000000e+00 -5.5533349613e+01 5.5533349613e+01 0.0000000000e+00 0.0000e+00 1.0000e+00
       25  2    1    2    0    0 +0.0000000000e+00 +0.0000000000e+00 +1.4807266020e+01 1.2587396525e+02 1.2500000000e+02 0.0000e+00 0.0000e+00
      -15  1    3    3    0    0 +1.4946528661e+01 +2.0151740778e+00 -1.2828017865e+01 1.9879019516e+01 1.7770000000e+00 0.0000e+00 -1.0000e+00
       15  1    3    3    0    0 -3.1356765129e+01 -4.8433257190e+00 -3.1388849823e+01 4.4666790186e+01 1.7770000000e+00 0.0000e+00 -1.0000e+00
       22  1    3    3    0    0 +1.6410236468e+01 +2.8281516412e+00 +5.9024133708e+01 6.1328155545e+01 0.0000000000e+00 0.0000e+00 -1.0000e+00
<mgrwt>
<rscale>  2 0.12500000E+03</rscale>
<asrwt>0</asrwt>
<pdfrwt beam="1">  1       21 0.10344208E-01 0.12500000E+03</pdfrwt>
<pdfrwt beam="2">  1       21 0.81666690E-02 0.12500000E+03</pdfrwt>
<totfact> 0.88834621E+06</totfact>
</mgrwt>
</event>
<event>
 6      0 +9.8758382e+01 1.25000000e+02 7.54677100e-03 1.12640300e-01
       21 -1    0    0  502  501 +0.0000000000e+00 +0.0000000000e+00 +4.0149932792e+01 4.0149932792e+01 0.0000000000e+00 0.0000e+00 1.0000e+00
       21 -1    0    0  501  502 -0.0000000000e+00 -0.0000000000e+00 -9.7291570081e+01 9.7291570081e+01 0.0000000000e+00 0.0000e+00 1.0000e+00
       25  2    1    2    0    0 +0.0000000000e+00 +0.0000000000e+00 -5.7141637289e+01 1.3744150287e+02 1.2500000000e+02 0.0000e+00 0.0000e+00
      -15  1    3    3    0    0 +3.3685230485e+01 +4.1417132104e+01 -1.8440812079e+01 5.6509245825e+01 1.7770000000e+00 0.0000e+00 -1.0000e+00
       15  1    3    3    0    0 -3.2152272423e+00 +8.6246896403e+00 +2.0108384649e+00 9.5877086914e+00 1.7770000000e+00 0.0000e+00 -1.0000e+00
       22  1    3    3    0    0 -3.0470003242e+01 -5.0041821745e+01 -4.0711663676e+01 7.1344548358e+01 0.0000000000e+00 0.0000e+00 -1.0000e+00
<mgrwt>
<rscale>  2 0.12500000E+03</rscale>
<asrwt>0</asrwt>
<pdfrwt beam="1">  1       21 0.59044020E-02 0.12500000E+03</pdfrwt>
<pdfrwt beam="2">  1       21 0.14307584E-01 0.12500000E+03</pdfrwt>
<totfact> 0.86781676E+06</totfact>
</mgrwt>
</event>
<event>
 6      0 +9.8758382e+01 1.25000000e+02 7.54677100e-03 1.12640300e-01
       21 -1    0    0  502  501 +0.0000000000e+00 +0.0000000000e+00 +6.1791776457e+01 6.1791776457e+01 0.0000000000e+00 0.0000e+00 -1.0000e+00
       21 -1    0    0  501  502 -0.0000000000e+00 -0.0000000000e+00 -6.3216340814e+01 6.3216340814e+01 0.0000000000e+00 0.0000e+00 -1.0000e+00
       25  2    1    2    0    0 +0.0000000000e+00 +0.0000000000e+00 -1.4245643571e+00 1.2500811727e+02 1.2500000000e+02 0.0000e+00 0.0000e+00
      -15  1    3    3    0    0 -9.7200519781e+00 +2.0965625981e+01 +1.0033019382e+01 2.5255812997e+01 1.7770000000e+00 0.0000e+00 -1.0000e+00
       15  1    3    3    0    0 -7.8330329248e+00 -3.7789861738e+01 -4.4370176380e+01 5.8832816828e+01 1.7770000000e+00 0.0000e+00 -1.0000e+00
       22  1    3    3    0    0 +1.7553084903e+01 +1.6824235757e+01 +3.2912592641e+01 4.0919487445e+01 0.0000000000e+00 0.0000e+00 -1.0000e+00
<mgrwt>
<rscale>  2 0.12500000E+03</rscale>
<asrwt>0</asrwt>
<pdfrwt beam="1">  1       21 0.90870260E-02 0.12500000E+03</pdfrwt>
<pdfrwt beam="2">  1       21 0.92965207E-02 0.12500000E+03</pdfrwt>
<totfact> 0.89000540E+06</totfact>
</mgrwt>
</event>
<event>
 6      0 +9.8758382e+01 1.25000000e+02 7.54677100e-03 1.12640300e-01
       21 -1    0    0  502  501 +0.0000000000e+00 +0.0000000000e+00 +3.2337618469e+01 3.2337618469e+01 0.0000000000e+00 0.0000e+00 -1.0000e+00
       21 -1    0    0  501  502 -0.0000000000e+00 -0.0000000000e+00 -1.2079584660e+02 1.2079584660e+02 0.0000000000e+00 0.0000e+00 -1.0000e+00
       25  2    1    2    0    0 +0.0000000000e+00 +0.0000000000e+00 -8.8458228133e+01 1.5313346507e+02 1.2500000000e+02 0.0000e+00 0.0000e+00
      -15  1    3    3    0    0 +2.6305274107e+01 +1.9349655191e+01 -5.6430366683e+01 6.5222086864e+01 1.7770000000e+00 0.0000e+00 -1.0000e+00
       15  1    3    3    0    0 +4.3872396037e+00 -1.7256644858e+01 -4.9428252479e+01 5.2567571137e+01 1.7770000000e+00 0.0000e+00 -1.0000e+00
       22  1    3    3    0    0 -3.0692513711e+01 -2.0930103330e+00 +1.7400391029e+01 3.5343807070e+01 0.0000000000e+00 0.0000e+00 -1.0000e+00
<mgrwt>
<rscale>  2 0.12500000E+03</rscale>
<asrwt>0</asrwt>
<pdfrwt beam="1">  1       21 0.47555321E-02 0.12500000E+03</pdfrwt>
<pdfrwt beam="2">  1       21 0.17764095E-01 0.12500000E+03</pdfrwt>
<totfact> 0.84103360E+06</totfact>
</mgrwt>
</event>
<event>
 6      0 +9.8758382e+01 1.25000000e+02 7.54677100e-03 1.12640300e-01
       21 -1    0    0  502  501 +0.0000000000e+00 +0.0000000000e+00 +5.6260891768e+01 5.6260891768e+01 0.0000000000e+00 0.0000e+00 1.0000e+00
       21 -1    0    0  501  502 -0.0000000000e+00 -0.0000000000e+00 -6.9431000421e+01 6.9431000421e+01 0.0000000000e+00 0.0000e+00 1.0000e+00
       25  2    1    2    0    0 +0.0000000000e+00 +0.0000000000e+00 -1.3170108653e+01 1.2569189219e+02 1.2500000000e+02 0.0000e+00 0.0000e+00
      -15  1    3    3    0    0 -2.6370295147e+01 +1.4244485155e+01 +2.9425364595e+01 4.2039358154e+01 1.7770000000e+00 0.0000e+00 -1.0000e+00
       15  1    3    3    0    0 +2.5012804311e+01 +2.3415632212e+01 -2.0634522073e+01 4.0035901908e+01 1.7770000000e+00 0.0000e+00 -1.0000e+00
       22  1    3    3    0    0 +1.3574908361e+00 -3.7660117368e+01 -2.1960951175e+01 4.3616632126e+01 0.0000000000e+00 0.0000e+00 -1.0000e+00
<mgrwt>
<rscale>  2 0.12500000E+03</rscale>
<asrwt>0</asrwt>
<pdfrwt beam="1">  1       21 0.82736606E-02 0.12500000E+03</pdfrwt>
<pdfrwt beam="2">  1       21 0.10210441E-01 0.12500000E+03</pdfrwt>
<totfact> 0.88867900E+06</totfact>
</mgrwt>
</event>
<event>
 6      0 +9.8758382e+01 1.25000000e+02 7.54677100e-03 1.12640300e-01
       21 -1    0    0  502  501 +0.0000000000e+00 +0.0000000000e+00 +2.9780057345e+00 2.9780057345e+00 0.0000000000e+00 0.0000e+00 -1.0000e+00
       21 -1    0    0  501  502 -0.0000000000e+00 -0.0000000000e+00 -1.3116999590e+03 1.3116999590e+03 0.0000000000e+00 0.0000e+00 -1.0000e+00
       25  2    1    2    0    0 +0.0000000000e+00 +0.0000000000e+00 -1.3087219533e+03 1.3146779648e+03 1.2500000000e+02 0.0000e+00 0.0000e+00
      -15  1    3    3    0    0 +1.9856084683e+01 +1.6708181847e+01 -7.6656073184e+01 8.0948988410e+01 1.7770000000e+00 0.0000e+00 -1.0000e+00
       15  1    3    3    0    0 +1.5962221506e+01 -1.6294378152e+01 -2.6043746325e+02 2.6144048896e+02 1.7770000000e+00 0.0000e+00 -1.0000e+00
       22  1    3    3    0    0 -3.5818306189e+01 -4.1380369499e-01 -9.7162841346e+02 9.7228848401e+02 0.0000000000e+00 0.0000e+00 -1.0000e+00
<mgrwt>
<rscale>  2 0.12500000E+03</rscale>
<asrwt>0</asrwt>
<pdfrwt beam="1">  1       21 0.43794286E-03 0.12500000E+03</pdfrwt>
<pdfrwt beam="2">  1       21 0.19289668E+00 0.12500000E+03</pdfrwt>
<totfact> 0.13684834E+06</totfact>
</mgrwt>
</event>
<event>
 6      0 +9.8758382e+01 1.25000000e+02 7.54677100e-03 1.12640300e-01
       21 -1    0    0  502  501 +0.0000000000e+00 +0.0000000000e+00 +7.2047984431e+01 7.2047984431e+01 0.0000000000e+00 0.0000e+00 -1.0000e+00
       21 -1    0    0  501  502 -0.0000000000e+00 -0.0000000000e+00 -5.4217339053e+01 5.4217339053e+01 0.0000000000e+00 0.0000e+00 -1.0000e+00
       25  2    1    2    0    0 +0.0000000000e+00 +0.0000000000e+00 +1.7830645378e+01 1.2626532348e+02 1.2500000000e+02 0.0000e+00 0.0000e+00
      -15  1    3    3    0    0 -1.5584475887e+01 +2.8232989658e+01 +3.5169243130e+01 4.7749460574e+01 1.7770000000e+00 0.0000e+00 -1.0000e+00
       15  1    3    3    0    0 -1.2617464170e+01 -2.4672381028e+01 -3.5283268365e+01 4.4899816738e+01 1.7770000000e+00 0.0000e+00 -1.0000e+00
       22  1    3    3    0    0 +2.8201940057e+01 -3.5606086306e+00 +1.7944670613e+01 3.3616046172e+01 0.0000000000e+00 0.0000e+00 -1.0000e+00
<mgrwt>
<rscale>  2 0.12500000E+03</rscale>
<asrwt>0</asrwt>
<pdfrwt beam="1">  1       21 0.10595292E-01 0.12500000E+03</pdfrwt>
<pdfrwt beam="2">  1       21 0.79731381E-02 0.12500000E+03</pdfrwt>
<totfact> 0.88764012E+06</totfact>
</mgrwt>
</event>
<event>
 6      0 +9.8758382e+01 1.25000000e+02 7.54677100e-03 1.12640300e-01
       21 -1    0    0  502  501 +0.0000000000e+00 +0.0000000000e+00 +2.4382427150e+02 2.4382427150e+02 0.0000000000e+00 0.0000e+00 1.0000e+00
       21 -1    0    0  501  502 -0.0000000000e+00 -0.0000000000e+00 -1.6020759443e+01 1.6020759443e+01 0.0000000000e+00 0.0000e+00 1.0000e+00
       25  2    1    2    0    0 +0.0000000000e+00 +0.0000000000e+00 +2.2780351206e+02 2.5984503094e+02 1.2500000000e+02 0.0000e+00 0.0000e+00
      -15  1    3    3    0    0 -4.0085991320e+01 -3.9620958328e+00 +5.9459702348e+01 7.1841484087e+01 1.7770000000e+00 0.0000e+00 -1.0000e+00
       15  1    3    3    0    0 +6.1134396482e+00 +2.2743439909e+01 +1.3433306652e+02 1.3639343346e+02 1.7770000000e+00 0.0000e+00 -1.0000e+00
       22  1    3    3    0    0 +3.3972551671e+01 -1.8781344076e+01 +3.4010743215e+01 5.1610113412e+01 0.0000000000e+00 0.0000e+00 -1.0000e+00
<mgrwt>
<rscale>  2 0.12500000E+03</rscale>
<asrwt>0</asrwt>
<pdfrwt beam="1">  1       21 0.35856508E-01 0.12500000E+03</pdfrwt>
<pdfrwt beam="2">  1       21 0.23559942E-02 0.12500000E+03</pdfrwt>
<totfact> 0.68754073E+06</totfact>
</mgrwt>
</event>
<event>
 6      0 +9.8758382e+01 1.25000000e+02 7.54677100e-03 1.12640300e-01
       21 -1    0    0  502  501 +0.0000000000e+00 +0.0000000000e+00 +1.6824767236e+02 1.6824767236e+02 0.0000000000e+00 0.0000e+00 1.0000e+00
       21 -1    0    0  501  502 -0.0000000000e+00 -0.0000000000e+00 -2.3217260276e+01 2.3217260276e+01 0.0000000000e+00 0.0000e+00 1.0000e+00
       25  2    1    2    0    0 +0.0000000000e+00 +0.0000000000e+00 +1.4503041208e+02 1.9146493263e+02 1.2500000000e+02 0.0000e+00 0.0000e+00
      -15  1    3    3    0    0 +7.5706547469e+00 +1.9529944534e+01 +5.9710071339e+00 2.1852784765e+01 1.7770000000e+00 0.0000e+00 -1.0000e+00
       15  1    3    3    0    0 +3.4440677506e+01 -1.3183314992e+01 +1.1500817638e+02 1.2078906583e+02 1.7770000000e+00 0.0000e+00 -1.0000e+00
       22  1    3    3    0    0 -4.2011332253e+01 -6.3466295423e+00 +2.4051228576e+01 4.8823082044e+01 0.0000000000e+00 0.0000e+00 -1.0000e+00
<mgrwt>
<rscale>  2 0.12500000E+03</rscale>
<asrwt>0</asrwt>
<pdfrwt beam="1">  1       21 0.24742304E-01 0.12500000E+03</pdfrwt>
<pdfrwt beam="2">  1       21 0.34143031E-02 0.12500000E+03</pdfrwt>
<totfact> 0.78079278E+06</totfact>
</mgrwt>
</event>
<event>
 6      0 +9.8758382e+01 1.25000000e+02 7.54677100e-03 1.12640300e-01
       21 -1    0    0  502  501 +0.0000000000e+00 +0.0000000000e+00 +7.7325023489e+01 7.7325023489e+01 0.0000000000e+00 0.0000e+00 -1.0000e+00
       21 -1    0    0  501  502 -0.0000000000e+00 -0.0000000000e+00 -5.0517281777e+01 5.0517281777e+01 0.0000000000e+00 0.0000e+00 -1.0000e+00
       25  2    1    2    0    0 +0.0000000000e+00 +0.0000000000e+00 +2.6807741712e+01 1.2784230527e+02 1.2500000000e+02 0.0000e+00 0.0000e+00
      -15  1    3    3    0    0 +1.5052857674e+01 +5.3726733868e+01 +1.3957524682e+01 5.7542338157e+01 1.7770000000e+00 0.0000e+00 -1.0000e+00
       15  1    3    3    0    0 +1.0056762346e+01 -1.4319440639e+00 -1.7990719302e+00 1.0468205266e+01 1.7770000000e+00 0.0000e+00 -1.0000e+00
       22  1    3    3    0    0 -2.5109620020e+01 -5.2294789804e+01 +1.4649288959e+01 5.9831761842e+01 0.0000000000e+00 0.0000e+00 -1.0000e+00
<mgrwt>
<rscale>  2 0.12500000E+03</rscale>
<asrwt>0</asrwt>
<pdfrwt beam="1">  1       21 0.11371327E-01 0.12500000E+03</pdfrwt>
<pdfrwt beam="2">  1       21 0.74290120E-02 0.12500000E+03</pdfrwt>
<totfact> 0.88485438E+06</totfact>
</mgrwt>
</event>
<event>
 6      0 +9.8758382e+01 1.25000000e+02 7.54677100e-03 1.12640300e-01
       21 -1    0    0  502  501 +0.0000000000e+00 +0.0000000000e+00 +6.6801072369e+01 6.6801072369e+01 0.0000000000e+00 0.0000e+00 -1.0000e+00
       21 -1    0    0  501  502 -0.0000000000e+00 -0.0000000000e+00 -5.8475857669e+01 5.8475857669e+01 0.0000000000e+00 0.0000e+00 -1.0000e+00
       25  2    1    2    0    0 +0.0000000000e+00 +0.0000000000e+00 +8.3252146993e+00 1.2527693004e+02 1.2500000000e+02 0.0000e+00 0.0000e+00
      -15  1    3    3    0    0 -7.9983887017e+00 -2.2168785930e+01 -6.9939410978e+00 2.4647560376e+01 1.7770000000e+00 0.0000e+00 -1.0000e+00
       15  1    3    3    0    0 -5.4405103175e+00 -1.1648783770e+01 -3.5686338570e+01 3.7973224849e+01 1.7770000000e+00 0.0000e+00 -1.0000e+00
       22  1    3    3    0    0 +1.3438899019e+01 +3.3817569700e+01 +5.1005494367e+01 6.2656144814e+01 0.0000000000e+00 0.0000e+00 -1.0000e+00
<mgrwt>
<rscale>  2 0.12500000E+03</rscale>
<asrwt>0</asrwt>
<pdfrwt beam="1">  1       21 0.98236871E-02 0.12500000E+03</pdfrwt>
<pdfrwt beam="2">  1       21 0.85993908E-02 0.12500000E+03</pdfrwt>
<totfact> 0.88945748E+06</totfact>
</mgrwt>
</event>
<event>
 6      0 +9.8758382e+01 1.25000000e+02 7.54677100e-03 1.12640300e-01
       21 -1    0    0  502  501 +0.0000000000e+00 +0.0000000000e+00 +2.2378425474e+01 2.2378425474e+01 0.0000000000e+00 0.0000e+00 -1.0000e+00
       21 -1    0    0  501  502 -0.0000000000e+00 -0.0000000000e+00 -1.7455428241e+02 1.7455428241e+02 0.0000000000e+00 0.0000e+00 -1.0000e+00
       25  2    1    2    0    0 +0.0000000000e+00 +0.0000000000e+00 -1.5217585693e+02 1.9693270788e+02 1.2500000000e+02 0.0000e+00 0.0000e+00
      -15  1    3    3    0    0 +1.8237128692e+01 -2.4995504063e+01 -9.7959801548e+00 3.2503646603e+01 1.7770000000e+00 0.0000e+00 -1.0000e+00
       15  1    3    3    0    0 +2.6740451407e+01 +1.5021250333e+00 -7.7787931239e+01 8.2288687537e+01 1.7770000000e+00 0.0000e+00 -1.0000e+00
       22  1    3    3    0    0 -4.4977580099e+01 +2.3493379030e+01 -6.4591945533e+01 8.2140373737e+01 0.0000000000e+00 0.0000e+00 -1.0000e+00
<mgrwt>
<rscale>  2 0.12500000E+03</rscale>
<asrwt>0</asrwt>
<pdfrwt beam="1">  1       21 0.32909449E-02 0.12500000E+03</pdfrwt>
<pdfrwt beam="2">  1       21 0.25669747E-01 0.12500000E+03</pdfrwt>
<totfact> 0.77268955E+06</totfact>
</mgrwt>
</event>
<event>
 6      0 +9.8758382e+01 1.25000000e+02 7.54677100e-03 1.12640300e-01
       21 -1    0    0  502  501 +0.0000000000e+00 +0.0000000000e+00 +1.8624397150e+02 1.8624397150e+02 0.0000000000e+00 0.0000e+00 1.0000e+00
       21 -1    0    0  501  502 -0.0000000000e+00 -0.0000000000e+00 -2.0973833239e+01 2.0973833239e+01 0.0000000000e+00 0.0000e+00 1.0000e+00
       25  2    1    2    0    0 +0.0000000000e+00 +0.0000000000e+00 +1.6527013826e+02 2.0721780474e+02 1.2500000000e+02 0.0000e+00 0.0000e+00
      -15  1    3    3    0    0 +5.4116333466e+00 -2.5525660254e+01 -3.5490968959e+00 2.6393160566e+01 1.7770000000e+00 0.0000e+00 -1.0000e+00
       15  1    3    3    0    0 -2.7458952755e+01 +1.3168027055e+01 +4.4432869203e+01 5.3896462013e+01 1.7770000000e+00 0.0000e+00 -1.0000e+00
       22  1    3    3    0    0 +2.2047319408e+01 +1.2357633199e+01 +1.2438636595e+02 1.2692818216e+02 0.0000000000e+00 0.0000e+00 -1.0000e+00
<mgrwt>
<rscale>  2 0.12500000E+03</rscale>
<asrwt>0</asrwt>
<pdfrwt beam="1">  1       21 0.27388818E-01 0.12500000E+03</pdfrwt>
<pdfrwt beam="2">  1       21 0.30843873E-02 0.12500000E+03</pdfrwt>
<totfact> 0.75778717E+06</totfact>
</mgrwt>
</event>
<event>
 6      0 +9.8758382e+01 1.25000000e+02 7.54677100e-03 1.12640300e-01
       21 -1    0    0  502  501 +0.0000000000e+00 +0.0000000000e+00 +4.8229121892e+02 4.8229121892e+02 0.0000000000e+00 0.0000e+00 1.0000e+00
       21 -1    0    0  501  502 -0.0000000000e+00 -0.0000000000e+00 -8.0993595710e+00 8.0993595710e+00 0.0000000000e+00 0.0000e+00 1.0000e+00
       25  2    1    2    0    0 +0.0000000000e+00 +0.0000000000e+00 +4.7419185935e+02 4.9039057850e+02 1.2500000000e+02 0.0000e+00 0.0000e+00
      -15  1    3    3    0    0 -2.1094887604e+01 -1.9966793886e+01 +1.0019353856e+02 1.0433393522e+02 1.7770000000e+00 0.0000e+00 -1.0000e+00
       15  1    3    3    0    0 +2.9616141118e+01 -2.8252992580e+01 +2.3824486113e+02 2.4174184369e+02 1.7770000000e+00 0.0000e+00 -1.0000e+00
       22  1    3    3    0    0 -8.5212535139e+00 +4.8219786465e+01 +1.3575345954e+02 1.4431479947e+02 0.0000000000e+00 0.0000e+00 -1.0000e+00
<mgrwt>
<rscale>  2 0.12500000E+03</rscale>
<asrwt>0</asrwt>
<pdfrwt beam="1">  1       21 0.70925160E-01 0.12500000E+03</pdfrwt>
<pdfrwt beam="2">  1       21 0.11910826E-02 0.12500000E+03</pdfrwt>
<totfact> 0.46049351E+06</totfact>
</mgrwt>
</event>
<event>
 6      0 +9.8758382e+01 1.25000000e+02 7.54677100e-03 1.12640300e-01
       21 -1    0    0  502  501 +0.0000000000e+00 +0.0000000000e+00 +1.7749833156e+02 1.7749833156e+02 0.0000000000e+00 0.0000e+00 1.0000e+00
       21 -1    0    0  501  502 -0.0000000000e+00 -0.0000000000e+00 -2.2007249114e+01 2.2007249114e+01 0.0000000000e+00 0.0000e+00 1.0000e+00
       25  2    1    2    0    0 +0.0000000000e+00 +0.0000000000e+00 +1.5549108245e+02 1.9950558068e+02 1.2500000000e+02 0.0000e+00 0.0000e+00
      -15  1    3    3    0    0 +4.0658459077e+01 -3.6506079811e+01 +8.5735998427e+01 1.0168393832e+02 1.7770000000e+00 0.0000e+00 -1.0000e+00
       15  1    3    3    0    0 +1.0417460049e+00 +1.8561968650e+01 +6.1199994642e+00 1.9653092310e+01 1.7770000000e+00 0.0000e+00 -1.0000e+00
       22  1    3    3    0    0 -4.1700205082e+01 +1.7944111161e+01 +6.3635084554e+01 7.8168550041e+01 0.0000000000e+00 0.0000e+00 -1.0000e+00
<mgrwt>
<rscale>  2 0.12500000E+03</rscale>
<asrwt>0</asrwt>
<pdfrwt beam="1">  1       21 0.26102695E-01 0.12500000E+03</pdfrwt>
<pdfrwt beam="2">  1       21 0.32363603E-02 0.12500000E+03</pdfrwt>
<totfact> 0.76891083E+06</totfact>
</mgrwt>
</event>
<event>
 6      0 +9.8758382e+01 1.25000000e+02 7.54677100e-03 1.12640300e-01
       21 -1    0    0  502  501 +0.0000000000e+00 +0.0000000000e+00 +2.1973037288e+01 2.1973037288e+01 0.0000000000e+00 0.0000e+00 -1.0000e+00
       21 -1    0    0  501  502 -0.0000000000e+00 -0.0000000000e+00 -1.7777469490e+02 1.7777469490e+02 0.0000000000e+00 0.0000e+00 -1.0000e+00
       25  2    1    2    0    0 +0.0000000000e+00 +0.0000000000e+00 -1.5580165761e+02 1.9974773219e+02 1.2500000000e+02 0.0000e+00 0.0000e+00
      -15  1    3    3    0    0 -4.7845742843e+00 -1.0490433648e+01 -4.6377325279e+01 4.7822122268e+01 1.7770000000e+00 0.0000e+00 -1.0000e+00
       15  1    3    3    0    0 +8.0006979905e-01 -2.0604591212e+01 -1.1769726828e+02 1.1950311285e+02 1.7770000000e+00 0.0000e+00 -1.0000e+00
       22  1    3    3    0    0 +3.9845044853e+00 +3.1095024860e+01 +8.2729359510e+00 3.2422497071e+01 0.0000000000e+00 0.0000e+00 -1.0000e+00
<mgrwt>
<rscale>  2 0.12500000E+03</rscale>
<asrwt>0</asrwt>
<pdfrwt beam="1">  1       21 0.32313291E-02 0.12500000E+03</pdfrwt>
<pdfrwt beam="2">  1       21 0.26143337E-01 0.12500000E+03</pdfrwt>
<totfact> 0.76855702E+06</totfact>
</mgrwt>
</event>
<event>
 6      0 +9.8758382e+01 1.25000000e+02 7.54677100e-03 1.12640300e-01
       21 -1    0    0  502  501 +0.0000000000e+00 +0.0000000000e+00 +8.4647239504e+01 8.4647239504e+01 0.0000000000e+00 0.0000e+00 1.0000e+00
       21 -1    0    0  501  502 -0.0000000000e+00 -0.0000000000e+00 -4.6147399760e+01 4.6147399760e+01 0.0000000000e+00 0.0000e+00 1.0000e+00
       25  2    1    2    0    0 +0.0000000000e+00 +0.0000000000e+00 +3.8499839744e+01 1.3079463926e+02 1.2500000000e+02 0.0000e+00 0.0000e+00
      -15  1    3    3    0    0 +5.0577640238e+01 +1.3023214616e+01 +3.1282215304e+01 6.0905143743e+01 1.7770000000e+00 0.0000e+00 -1.0000e+00
       15  1    3    3    0    0 -2.2990976759e+01 -1.1650774047e+01 -1.8794181621e+01 3.1948466943e+01 1.7770000000e+00 0.0000e+00 -1.0000e+00
       22  1    3    3    0    0 -2.7586663479e+01 -1.3724405690e+00 +2.6011806063e+01 3.7941028580e+01 0.0000000000e+00 0.0000e+00 -1.0000e+00
<mgrwt>
<rscale>  2 0.12500000E+03</rscale>
<asrwt>0</asrwt>
<pdfrwt beam="1">  1       21 0.12448124E-01 0.12500000E+03</pdfrwt>
<pdfrwt beam="2">  1       21 0.67863823E-02 0.12500000E+03</pdfrwt>
<totfact> 0.87953260E+06</totfact>
</mgrwt>
</event>
<event>
 6      0 +9.8758382e+01 1.25000000e+02 7.54677100e-03 1.12640300e-01
       21 -1    0    0  502  501 +0.0000000000e+00 +0.0000000000e+00 +5.4801145287e+01 5.4801145287e+01 0.0000000000e+00 0.0000e+00 -1.0000e+00
       21 -1    0    0  501  502 -0.0000000000e+00 -0.0000000000e+00 -7.1280444588e+01 7.1280444588e+01 0.0000000000e+00 0.0000e+00 -1.0000e+00
       25  2    1    2    0    0 +0.0000000000e+00 +0.0000000000e+00 -1.6479299301e+01 1.2608158988e+02 1.2500000000e+02 0.0000e+00 0.0000e+00
      -15  1    3    3    0    0 +1.6153254006e+01 +3.7545281183e+01 +1.1920043421e+01 4.2612450272e+01 1.7770000000e+00 0.0000e+00 -1.0000e+00
       15  1    3    3    0    0 -1.6204823538e+01 +1.6598292631e+01 -1.5035728353e+01 2.7700730681e+01 1.7770000000e+00 0.0000e+00 -1.0000e+00
       22  1    3    3    0    0 +5.1569532556e-02 -5.4143573813e+01 -1.3363614368e+01 5.5768408922e+01 0.0000000000e+00 0.0000e+00 -1.0000e+00
<mgrwt>
<rscale>  2 0.12500000E+03</rscale>
<asrwt>0</asrwt>
<pdfrwt beam="1">  1       21 0.80589920E-02 0.12500000E+03</pdfrwt>
<pdfrwt beam="2">  1       21 0.10482418E-01 0.12500000E+03</pdfrwt>
<totfact> 0.88797033E+06</totfact>
</mgrwt>
</event>
<event>
 6      0 +9.8758382e+01 1.25000000e+02 7.54677100e-03 1.12640300e-01
       21 -1    0    0  502  501 +0.0000000000e+00 +0.0000000000e+00 +5.5281262131e+01 5.5281262131e+01 0.0000000000e+00 0.0000e+00 1.0000e+00
       21 -1    0    0  501  502 -0.0000000000e+00 -0.0000000000e+00 -7.0661375110e+01 7.0661375110e+01 0.0000000000e+00 0.0000e+00 1.0000e+00
       25  2    1    2    0    0 +0.0000000000e+00 +0.0000000000e+00 -1.5380112978e+01 1.2594263724e+02 1.2500000000e+02 0.0000e+00 0.0000e+00
      -15  1    3    3    0    0 +1.9638183856e+01 -1.0354160041e+00 -1.2718328554e+01 2.3487102027e+01 1.7770000000e+00 0.0000e+00 -1.0000e+00
       15  1    3    3    0    0 -7.7500764696e+00 -4.4437962109e+01 +2.1051381576e+01 4.9810787555e+01 1.7770000000e+00 0.0000e+00 -1.0000e+00
       22  1    3    3    0    0 -1.1888107386e+01 +4.5473378113e+01 -2.3713166000e+01 5.2644747658e+01 0.0000000000e+00 0.0000e+00 -1.0000e+00
<mgrwt>
<rscale>  2 0.12500000E+03</rscale>
<asrwt>0</asrwt>
<pdfrwt beam="1">  1       21 0.81295974E-02 0.12500000E+03</pdfrwt>
<pdfrwt beam="2">  1       21 0.10391379E-01 0.12500000E+03</pdfrwt>
<totfact> 0.88822151E+06</totfact>
</mgrwt>
</event>
<event>
 6      0 +9.8758382e+01 1.25000000e+02 7.54677100e-03 1.12640300e-01
       21 -1    0    0  502  501 +0.0000000000e+00 +0.0000000000e+00 +1.0637904747e+01 1.0637904747e+01 0.0000000000e+00 0.0000e+00 -1.0000e+00
       21 -1    0    0  501  502 -0.0000000000e+00 -0.0000000000e+00 -3.6720106948e+02 3.6720106948e+02 0.0000000000e+00 0.0000e+00 -1.0000e+00
       25  2    1    2    0    0 +0.0000000000e+00 +0.0000000000e+00 -3.5656316473e+02 3.7783897422e+02 1.2500000000e+02 0.0000e+00 0.0000e+00
      -15  1    3    3    0    0 -1.9416056153e+01 -3.0671138358e+01 -2.0388833231e+02 2.0710217707e+02 1.7770000000e+00 0.0000e+00 -1.0000e+00
       15  1    3    3    0    0 +2.2651626888e+01 +4.4586139347e+01 -1.4713856038e+02 1.5541535865e+02 1.7770000000e+00 0.0000e+00 -1.0000e+00
       22  1    3    3    0    0 -3.2355707356e+00 -1.3915000989e+01 -5.5362720692e+00 1.5321438541e+01 0.0000000000e+00 0.0000e+00 -1.0000e+00
<mgrwt>
<rscale>  2 0.12500000E+03</rscale>
<asrwt>0</asrwt>
<pdfrwt beam="1">  1       21 0.15643981E-02 0.12500000E+03</pdfrwt>
<pdfrwt beam="2">  1       21 0.54000147E-01 0.12500000E+03</pdfrwt>
<totfact> 0.55753801E+06</totfact>
</mgrwt>
</event>
<event>
 6      0 +9.8758382e+01 1.25000000e+02 7.54677100e-03 1.12640300e-01
       21 -1    0    0  502  501 +0.0000000000e+00 +0.0000000000e+00 +6.4189027661e+01 6.4189027661e+01 0.0000000000e+00 0.0000e+00 1.0000e+00
       21 -1    0    0  501  502 -0.0000000000e+00 -0.0000000000e+00 -6.0855416297e+01 6.0855416297e+01 0.0000000000e+00 0.0000e+00 1.0000e+00
       25  2    1    2    0    0 +0.0000000000e+00 +0.0000000000e+00 +3.3336113635e+00 1.2504444396e+02 1.2500000000e+02 0.0000e+00 0.0000e+00
      -15  1    3    3    0    0 -4.7416293417e+00 +3.3984672069e+01 -6.7248907975e+00 3.5011753308e+01 1.7770000000e+00 0.0000e+00 -1.0000e+00
       15  1    3    3    0    0 +3.0116699270e+00 +2.7052605473e+01 +9.7569817357e+00 2.8970157753e+01 1.7770000000e+00 0.0000e+00 -1.0000e+00
       22  1    3    3    0    0 +1.7299594147e+00 -6.1037277542e+01 +3.0152042529e-01 6.1062532897e+01 0.0000000000e+00 0.0000e+00 -1.0000e+00
<mgrwt>
<rscale>  2 0.12500000E+03</rscale>
<asrwt>0</asrwt>
<pdfrwt beam="1">  1       21 0.94395629E-02 0.12500000E+03</pdfrwt>
<pdfrwt beam="2">  1       21 0.89493259E-02 0.12500000E+03</pdfrwt>
<totfact> 0.88992844E+06</totfact>
</mgrwt>
</event>
<event>
 6      0 +9.8758382e+01 1.25000000e+02 7.54677100e-03 1.12640300e-01
       21 -1    0    0  502  501 +0.0000000000e+00 +0.0000000000e+00 +6.1967254652e+00 6.1967254652e+00 0.0000000000e+00 0.0000e+00 1.0000e+00
       21 -1    0    0  501  502 -0.0000000000e+00 -0.0000000000e+00 -6.3037325470e+02 6.3037325470e+02 0.0000000000e+00 0.0000e+00 1.0000e+00
       25  2    1    2    0    0 +0.0000000000e+00 +0.0000000000e+00 -6.2417652923e+02 6.3656998016e+02 1.2500000000e+02 0.0000e+00 0.0000e+00
      -15  1    3    3    0    0 -4.4701227884e-02 +3.6006444982e+01 -2.1162002958e+02 2.1466872322e+02 1.7770000000e+00 0.0000e+00 -1.0000e+00
       15  1    3    3    0    0 +1.5719875342e+01 +2.1636277459e+01 -1.6983675377e+02 1.7193872061e+02 1.7770000000e+00 0.0000e+00 -1.0000e+00
       22  1    3    3    0    0 -1.5675174114e+01 -5.7642722440e+01 -2.4271974588e+02 2.4996253634e+02 0.0000000000e+00 0.0000e+00 -1.0000e+00
<mgrwt>
<rscale>  2 0.12500000E+03</rscale>
<asrwt>0</asrwt>
<pdfrwt beam="1">  1       21 0.91128368E-03 0.12500000E+03</pdfrwt>
<pdfrwt beam="2">  1       21 0.92701896E-01 0.12500000E+03</pdfrwt>
<totfact> 0.36305363E+06</totfact>
</mgrwt>
</event>
<event>
 6      0 +9.8758382e+01 1.25000000e+02 7.54677100e-03 1.12640300e-01
       21 -1    0    0  502  501 +0.0000000000e+00 +0.0000000000e+00 +4.6749830224e+01 4.6749830224e+01 0.0000000000e+00 0.0000e+00 -1.0000e+00
       21 -1    0    0  501  502 -0.0000000000e+00 -0.0000000000e+00 -8.3556453174e+01 8.3556453174e+01 0.0000000000e+00 0.0000e+00 -1.0000e+00
       25  2    1    2    0    0 +0.0000000000e+00 +0.0000000000e+00 -3.6806622950e+01 1.3030628340e+02 1.2500000000e+02 0.0000e+00 0.0000e+00
      -15  1    3    3    0    0 -3.2015876913e+01 +8.9826708607e+00 -1.3088937059e+00 3.3325300930e+01 1.7770000000e+00 0.0000e+00 -1.0000e+00
       15  1    3    3    0    0 +1.7876951611e+01 -1.1678795112e+00 +2.6987491154e+01 3.2441204497e+01 1.7770000000e+00 0.0000e+00 -1.0000e+00
       22  1    3    3    0    0 +1.4138925303e+01 -7.8147913495e+00 -6.2485220397e+01 6.4539777972e+01 0.0000000000e+00 0.0000e+00 -1.0000e+00
<mgrwt>
<rscale>  2 0.12500000E+03</rscale>
<asrwt>0</asrwt>
<pdfrwt beam="1">  1       21 0.68749751E-02 0.12500000E+03</pdfrwt>
<pdfrwt beam="2">  1       21 0.12287714E-01 0.12500000E+03</pdfrwt>
<totfact> 0.88042037E+06</totfact>
</mgrwt>
</event>
<event>
 6      0 +9.8758382e+01 1.25000000e+02 7.54677100e-03 1.12640300e-01
       21 -1    0    0  502  501 +0.0000000000e+00 +0.0000000000e+00 +1.3545254335e+02 1.3545254335e+02 0.0000000000e+00 0.0000e+00 1.0000e+00
       21 -1    0    0  501  502 -0.0000000000e+00 -0.0000000000e+00 -2.8838513501e+01 2.8838513501e+01 0.0000000000e+00 0.0000e+00 1.0000e+00
       25  2    1    2    0    0 +0.0000000000e+00 +0.0000000000e+00 +1.0661402984e+02 1.6429105685e+02 1.2500000000e+02 0.0000e+00 0.0000e+00
      -15  1    3    3    0    0 +2.8130472578e+01 +4.0118932047e+01 +2.2644406320e+01 5.4007213061e+01 1.7770000000e+00 0.0000e+00 -1.0000e+00
       15  1    3    3    0    0 -3.6861708044e-01 -6.9178870335e+00 +6.0750653249e+01 6.1170194039e+01 1.7770000000e+00 0.0000e+00 -1.0000e+00
       22  1    3    3    0    0 -2.7761855497e+01 -3.3201045013e+01 +2.3218970264e+01 4.9113649740e+01 0.0000000000e+00 0.0000e+00 -1.0000e+00
<mgrwt>
<rscale>  2 0.12500000E+03</rscale>
<asrwt>0</asrwt>
<pdfrwt beam="1">  1       21 0.19919491E-01 0.12500000E+03</pdfrwt>
<pdfrwt beam="2">  1       21 0.42409579E-02 0.12500000E+03</pdfrwt>
<totfact> 0.82281225E+06</totfact>
</mgrwt>
</event>
<event>
 6      0 +9.8758382e+01 1.25000000e+02 7.54677100e-03 1.12640300e-01
       21 -1    0    0  502  501 +0.0000000000e+00 +0.0000000000e+00 +6.7204367197e+01 6.7204367197e+01 0.0000000000e+00 0.0000e+00 -1.0000e+00
       21 -1    0    0  501  502 -0.0000000000e+00 -0.0000000000e+00 -5.8124942811e+01 5.8124942811e+01 0.0000000000e+00 0.0000e+00 -1.0000e+00
       25  2    1    2    0    0 +0.0000000000e+00 +0.0000000000e+00 +9.0794243864e+00 1.2532931001e+02 1.2500000000e+02 0.0000e+00 0.0000e+00
      -15  1    3    3    0    0 -6.0477542419e+00 +4.4015071401e+01 -1.2435975582e+01 4.6170478225e+01 1.7770000000e+00 0.0000e+00 -1.0000e+00
       15  1    3    3    0    0 -9.6829433030e+00 +1.1902398660e+01 +1.3511812835e+01 2.0522019880e+01 1.7770000000e+00 0.0000e+00 -1.0000e+00
       22  1    3    3    0    0 +1.5730697545e+01 -5.5917470061e+01 +8.0035871326e+00 5.8636811903e+01 0.0000000000e+00 0.0000e+00 -1.0000e+00
<mgrwt>
<rscale>  2 0.12500000E+03</rscale>
<asrwt>0</asrwt>
<pdfrwt beam="1">  1       21 0.98829952E-02 0.12500000E+03</pdfrwt>
<pdfrwt beam="2">  1       21 0.85477857E-02 0.12500000E+03</pdfrwt>
<totfact> 0.88935672E+06</totfact>
</mgrwt>
</event>
<event>
 6      0 +9.8758382e+01 1.25000000e+02 7.54677100e-03 1.12640300e-01
       21 -1    0    0  502  501 +0.0000000000e+00 +0.0000000000e+00 +6.5580774991e+02 6.5580774991e+02 0.0000000000e+00 0.0000e+00 -1.0000e+00
       21 -1    0    0  501  502 -0.0000000000e+00 -0.0000000000e+00 -5.9563949962e+00 5.9563949962e+00 0.0000000000e+00 0.0000e+00 -1.0000e+00
       25  2    1    2    0    0 +0.0000000000e+00 +0.0000000000e+00 +6.4985135491e+02 6.6176414490e+02 1.2500000000e+02 0.0000e+00 0.0000e+00
      -15  1    3    3    0    0 -2.5548505489e+01 +2.0860639769e+01 +1.1854997330e+02 1.2306561796e+02 1.7770000000e+00 0.0000e+00 -1.0000e+00
       15  1    3    3    0    0 +3.0062381518e+01 -2.9129013908e+01 +5.2642745321e+02 5.2809210130e+02 1.7770000000e+00 0.0000e+00 -1.0000e+00
       22  1    3    3    0    0 -4.5138760285e+00 +8.2683741389e+00 +4.8739284689e+00 1.0606425714e+01 0.0000000000e+00 0.0000e+00 -1.0000e+00
<mgrwt>
<rscale>  2 0.12500000E+03</rscale>
<asrwt>0</asrwt>
<pdfrwt beam="1">  1       21 0.96442266E-01 0.12500000E+03</pdfrwt>
<pdfrwt beam="2">  1       21 0.87594089E-03 0.12500000E+03</pdfrwt>
<totfact> 0.34915131E+06</totfact>
</mgrwt>
</event>
<event>
 6      0 +9.8758382e+01 1.25000000e+02 7.54677100e-03 1.12640300e-01
       21 -1    0    0  502  501 +0.0000000000e+00 +0.0000000000e+00 +2.4602068537e+01 2.4602068537e+01 0.0000000000e+00 0.0000e+00 -1.0000e+00
       21 -1    0    0  501  502 -0.0000000000e+00 -0.0000000000e+00 -1.5877729932e+02 1.5877729932e+02 0.0000000000e+00 0.0000e+00 -1.0000e+00
       25  2    1    2    0    0 +0.0000000000e+00 +0.0000000000e+00 -1.3417523079e+02 1.8337936786e+02 1.2500000000e+02 0.0000e+00 0.0000e+00
      -15  1    3    3    0    0 -1.0604942745e-01 -1.3521417363e+01 -2.5913949362e+01 2.9283621267e+01 1.7770000000e+00 0.0000e+00 -1.0000e+00
       15  1    3    3    0    0 +8.5862471308e+00 -4.5804593900e+01 -2.9717171124e+01 5.5299660493e+01 1.7770000000e+00 0.0000e+00 -1.0000e+00
       22  1    3    3    0    0 -8.4801977034e+00 +5.9326011263e+01 -7.8544110307e+01 9.8796086104e+01 0.0000000000e+00 0.0000e+00 -1.0000e+00
<mgrwt>
<rscale>  2 0.12500000E+03</rscale>
<asrwt>0</asrwt>
<pdfrwt beam="1">  1       21 0.36179514E-02 0.12500000E+03</pdfrwt>
<pdfrwt beam="2">  1       21 0.23349602E-01 0.12500000E+03</pdfrwt>
<totfact> 0.79291925E+06</totfact>
</mgrwt>
</event>
<event>
 6      0 +9.8758382e+01 1.25000000e+02 7.54677100e-03 1.12640300e-01
       21 -1    0    0  502  501 +0.0000000000e+00 +0.0000000000e+00 +9.9506478686e+00 9.9506478686e+00 0.0000000000e+00 0.0000e+00 1.0000e+00
       21 -1    0    0  501  502 -0.0000000000e+00 -0.0000000000e+00 -3.9256237901e+02 3.9256237901e+02 0.0000000000e+00 0.0000e+00 1.0000e+00
       25  2    1    2    0    0 +0.0000000000e+00 +0.0000000000e+00 -3.8261173114e+02 4.0251302688e+02 1.2500000000e+02 0.0000e+00 0.0000e+00
      -15  1    3    3    0    0 +3.2426870472e+01 +1.1818676089e+01 -2.8584202310e+02 2.8792360607e+02 1.7770000000e+00 0.0000e+00 -1.0000e+00
       15  1    3    3    0    0 +1.0642117839e+01 -1.4334424320e+01 -3.3655717388e+01 3.8139158809e+01 1.7770000000e+00 0.0000e+00 -1.0000e+00
       22  1    3    3    0    0 -4.3068988312e+01 +2.5157482317e+00 -6.3113990628e+01 7.6450261977e+01 0.0000000000e+00 0.0000e+00 -1.0000e+00
<mgrwt>
<rscale>  2 0.12500000E+03</rscale>
<asrwt>0</asrwt>
<pdfrwt beam="1">  1       21 0.14633307E-02 0.12500000E+03</pdfrwt>
<pdfrwt beam="2">  1       21 0.57729755E-01 0.12500000E+03</pdfrwt>
<totfact> 0.53424424E+06</totfact>
</mgrwt>
</event>
<event>
 6      0 +9.8758382e+01 1.25000000e+02 7.54677100e-03 1.12640300e-01
       21 -1    0    0  502  501 +0.0000000000e+00 +0.0000000000e+00 +3.4018843546e+02 3.4018843546e+02 0.0000000000e+00 0.0000e+00 1.0000e+00
       21 -1    0    0  501  502 -0.0000000000e+00 -0.0000000000e+00 -1.1482606676e+01 1.1482606676e+01 0.0000000000e+00 0.0000e+00 1.0000e+00
       25  2    1    2    0    0 +0.0000000000e+00 +0.0000000000e+00 +3.2870582879e+02 3.5167104214e+02 1.2500000000e+02 0.0000e+00 0.0000e+00
      -15  1    3    3    0    0 -3.8106983405e+01 +2.6565604307e+01 +1.3018681736e+02 1.3823761666e+02 1.7770000000e+00 0.0000e+00 -1.0000e+00
       15  1    3    3    0    0 +4.7980664641e+01 -1.2562245990e+01 +8.3427557024e+01 9.7073524731e+01 1.7770000000e+00 0.0000e+00 -1.0000e+00
       22  1    3    3    0    0 -9.8736812359e+00 -1.4003358316e+01 +1.1509145441e+02 1.1635990076e+02 0.0000000000e+00 0.0000e+00 -1.0000e+00
<mgrwt>
<rscale>  2 0.12500000E+03</rscale>
<asrwt>0</asrwt>
<pdfrwt beam="1">  1       21 0.50027705E-01 0.12500000E+03</pdfrwt>
<pdfrwt beam="2">  1       21 0.16886188E-02 0.12500000E+03</pdfrwt>
<totfact> 0.58358054E+06</totfact>
</mgrwt>
</event>
<event>
 6      0 +9.8758382e+01 1.25000000e+02 7.54677100e-03 1.12640300e-01
       21 -1    0    0  502  501 +0.0000000000e+00 +0.0000000000e+00 +3.2353306677e+02 3.2353306677e+02 0.0000000000e+00 0.0000e+00 1.0000e+00
       21 -1    0    0  501  502 -0.0000000000e+00 -0.0000000000e+00 -1.2073727236e+01 1.2073727236e+01 0.0000000000e+00 0.0000e+00 1.0000e+00
       25  2    1    2    0    0 +0.0000000000e+00 +0.0000000000e+00 +3.1145933953e+02 3.3560679400e+02 1.2500000000e+02 0.0000e+00 0.0000e+00
      -15  1    3    3    0    0 +9.0686279716e+00 +2.6584560146e+00 +9.7844921684e+01 9.8316294834e+01 1.7770000000e+00 0.0000e+00 -1.0000e+00
       15  1    3    3    0    0 +2.4789309982e+01 -1.9650294593e+01 +1.9005918511e+02 1.9268185057e+02 1.7770000000e+00 0.0000e+00 -1.0000e+00
       22  1    3    3    0    0 -3.3857937953e+01 +1.6991838578e+01 +2.3555232752e+01 4.4608648609e+01 0.0000000000e+00 0.0000e+00 -1.0000e+00
<mgrwt>
<rscale>  2 0.12500000E+03</rscale>
<asrwt>0</asrwt>
<pdfrwt beam="1">  1       21 0.47578386E-01 0.12500000E+03</pdfrwt>
<pdfrwt beam="2">  1       21 0.17755483E-02 0.12500000E+03</pdfrwt>
<totfact> 0.60026752E+06</totfact>
</mgrwt>
</event>
<event>
 6      0 +9.8758382e+01 1.25000000e+02 7.54677100e-03 1.12640300e-01
       21 -1    0    0  502  501 +0.0000000000e+00 +0.0000000000e+00 +1.0555674381e+01 1.0555674381e+01 0.0000000000e+00 0.0000e+00 1.0000e+00
       21 -1    0    0  501  502 -0.0000000000e+00 -0.0000000000e+00 -3.7006162364e+02 3.7006162364e+02 0.0000000000e+00 0.0000e+00 1.0000e+00
       25  2    1    2    0    0 +0.0000000000e+00 +0.0000000000e+00 -3.5950594926e+02 3.8061729803e+02 1.2500000000e+02 0.0000e+00 0.0000e+00
      -15  1    3    3    0    0 -8.7351205848e+00 +1.1167763772e+00 -2.4611365032e+02 2.4627755912e+02 1.7770000000e+00 0.0000e+00 -1.0000e+00
       15  1    3    3    0    0 +4.5137464192e+00 +2.3708287341e+01 -1.0506688984e+02 1.0781774374e+02 1.7770000000e+00 0.0000e+00 -1.0000e+00
       22  1    3    3    0    0 +4.2213741656e+00 -2.4825063718e+01 -8.3254090257e+00 2.6521995096e+01 0.0000000000e+00 0.0000e+00 -1.0000e+00
<mgrwt>
<rscale>  2 0.12500000E+03</rscale>
<asrwt>0</asrwt>
<pdfrwt beam="1">  1       21 0.15523045E-02 0.12500000E+03</pdfrwt>
<pdfrwt beam="2">  1       21 0.54420845E-01 0.12500000E+03</pdfrwt>
<totfact> 0.55485072E+06</totfact>
</mgrwt>
</event>
<event>
 6      0 +9.8758382e+01 1.25000000e+02 7.54677100e-03 1.12640300e-01
       21 -1    0    0  502  501 +0.0000000000e+00 +0.0000000000e+00 +5.3968754264e+01 5.3968754264e+01 0.0000000000e+00 0.0000e+00 -1.0000e+00
       21 -1    0    0  501  502 -0.0000000000e+00 -0.0000000000e+00 -7.2379843732e+01 7.2379843732e+01 0.0000000000e+00 0.0000e+00 -1.0000e+00
       25  2    1    2    0    0 +0.0000000000e+00 +0.0000000000e+00 -1.8411089468e+01 1.2634859800e+02 1.2500000000e+02 0.0000e+00 0.0000e+00
      -15  1    3    3    0    0 -3.3618941008e+01 -1.5272392462e+01 +1.0253902235e+01 3.8363777265e+01 1.7770000000e+00 0.0000e+00 -1.0000e+00
       15  1    3    3    0    0 +8.3136315846e+00 -1.4403576400e+01 +1.9707791991e+01 2.5848293510e+01 1.7770000000e+00 0.0000e+00 -1.0000e+00
       22  1    3    3    0    0 +2.5305309424e+01 +2.9675968861e+01 -4.8372783692e+01 6.2136527220e+01 0.0000000000e+00 0.0000e+00 -1.0000e+00
<mgrwt>
<rscale>  2 0.12500000E+03</rscale>
<asrwt>0</asrwt>
<pdfrwt beam="1">  1       21 0.79365816E-02 0.12500000E+03</pdfrwt>
<pdfrwt beam="2">  1       21 0.10644095E-01 0.12500000E+03</pdfrwt>
<totfact> 0.88749107E+06</totfact>
</mgrwt>
</event>
<event>
 6      0 +9.8758382e+01 1.25000000e+02 7.54677100e-03 1.12640300e-01
       21 -1    0    0  502  501 +0.0000000000e+00 +0.0000000000e+00 +1.4469570919e+01 1.4469570919e+01 0.0000000000e+00 0.0000e+00 -1.0000e+00
       21 -1    0    0  501  502 -0.0000000000e+00 -0.0000000000e+00 -2.6996308474e+02 2.6996308474e+02 0.0000000000e+00 0.0000e+00 -1.0000e+00
       25  2    1    2    0    0 +0.0000000000e+00 +0.0000000000e+00 -2.5549351382e+02 2.8443265566e+02 1.2500000000e+02 0.0000e+00 0.0000e+00
      -15  1    3    3    0    0 +1.0732099390e+01 -3.7436181998e+01 -4.5303742491e+01 5.9768156175e+01 1.7770000000e+00 0.0000e+00 -1.0000e+00
       15  1    3    3    0    0 -1.8430225957e+00 -5.8227431985e+00 -1.4935247683e+02 1.4948786284e+02 1.7770000000e+00 0.0000e+00 -1.0000e+00
       22  1    3    3    0    0 -8.8890767939e+00 +4.3258925196e+01 -6.0837294482e+01 7.5176636632e+01 0.0000000000e+00 0.0000e+00 -1.0000e+00
<mgrwt>
<rscale>  2 0.12500000E+03</rscale>
<asrwt>0</asrwt>
<pdfrwt beam="1">  1       21 0.21278784E-02 0.12500000E+03</pdfrwt>
<pdfrwt beam="2">  1       21 0.39700448E-01 0.12500000E+03</pdfrwt>
<totfact> 0.65764828E+06</totfact>
</mgrwt>
</event>
<event>
 6      0 +9.8758382e+01 1.25000000e+02 7.54677100e-03 1.12640300e-01
       21 -1    0    0  502  501 +0.0000000000e+00 +0.0000000000e+00 +1.3000972469e+01 1.3000972469e+01 0.0000000000e+00 0.0000e+00 1.0000e+00
       21 -1    0    0  501  502 -0.0000000000e+00 -0.0000000000e+00 -3.0045829337e+02 3.0045829337e+02 0.0000000000e+00 0.0000e+00 1.0000e+00
       25  2    1    2    0    0 +0.0000000000e+00 +0.0000000000e+00 -2.8745732090e+02 3.1345926583e+02 1.2500000000e+02 0.0000e+00 0.0000e+00
      -15  1    3    3    0    0 +9.6056753449e-01 +4.1216740113e+00 -1.3047092340e+01 1.3830952034e+01 1.7770000000e+00 0.0000e+00 -1.0000e+00
       15  1    3    3    0    0 +1.9157871140e+01 -3.6643814961e+00 +4.4153659506e+00 2.0077472546e+01 1.7770000000e+00 0.0000e+00 -1.0000e+00
       22  1    3    3    0    0 -2.0118438675e+01 -4.5729251513e-01 -2.7882559455e+02 2.7955084129e+02 0.0000000000e+00 0.0000e+00 -1.0000e+00
<mgrwt>
<rscale>  2 0.12500000E+03</rscale>
<asrwt>0</asrwt>
<pdfrwt beam="1">  1       21 0.19119080E-02 0.12500000E+03</pdfrwt>
<pdfrwt beam="2">  1       21 0.44185036E-01 0.12500000E+03</pdfrwt>
<totfact> 0.62428358E+06</totfact>
</mgrwt>
</event>
<event>
 6      0 +9.8758382e+01 1.25000000e+02 7.54677100e-03 1.12640300e-01
       21 -1    0    0  502  501 +0.0000000000e+00 +0.0000000000e+00 +1.6174785333e+01 1.6174785333e+01 0.0000000000e+00 0.0000e+00 -1.0000e+00
       21 -1    0    0  501  502 -0.0000000000e+00 -0.0000000000e+00 -2.4150243232e+02 2.4150243232e+02 0.0000000000e+00 0.0000e+00 -1.0000e+00
       25  2    1    2    0    0 +0.0000000000e+00 +0.0000000000e+00 -2.2532764698e+02 2.5767721765e+02 1.2500000000e+02 0.0000e+00 0.0000e+00
      -15  1    3    3    0    0 +1.6013975038e+01 +9.6487409259e+00 -7.2262410781e+01 7.4662971671e+01 1.7770000000e+00 0.0000e+00 -1.0000e+00
       15  1    3    3    0    0 +4.1765748020e+01 -7.5575291831e+00 -6.2740145353e+01 7.5769238632e+01 1.7770000000e+00 0.0000e+00 -1.0000e+00
       22  1    3    3    0    0 -5.7779723058e+01 -2.0912117428e+00 -9.0325090829e+01 1.0724500733e+02 0.0000000000e+00 0.0000e+00 -1.0000e+00
<mgrwt>
<rscale>  2 0.12500000E+03</rscale>
<asrwt>0</asrwt>
<pdfrwt beam="1">  1       21 0.23786451E-02 0.12500000E+03</pdfrwt>
<pdfrwt beam="2">  1       21 0.35515061E-01 0.12500000E+03</pdfrwt>
<totfact> 0.69026340E+06</totfact>
</mgrwt>
</event>
<event>
 6      0 +9.8758382e+01 1.25000000e+02 7.54677100e-03 1.12640300e-01
       21 -1    0    0  502  501 +0.0000000000e+00 +0.0000000000e+00 +2.0191742742e+01 2.0191742742e+01 0.0000000000e+00 0.0000e+00 1.0000e+00
       21 -1    0    0  501  502 -0.0000000000e+00 -0.0000000000e+00 -1.9345779361e+02 1.9345779361e+02 0.0000000000e+00 0.0000e+00 1.0000e+00
       25  2    1    2    0    0 +0.0000000000e+00 +0.0000000000e+00 -1.7326605087e+02 2.1364953635e+02 1.2500000000e+02 0.0000e+00 0.0000e+00
      -15  1    3    3    0    0 +9.0912439879e+00 -4.3077463494e+01 -9.1407862402e+01 1.0147351189e+02 1.7770000000e+00 0.0000e+00 -1.0000e+00
       15  1    3    3    0    0 +2.1024189203e+00 +3.6396461158e+01 -8.2483253830e+00 3.7420785009e+01 1.7770000000e+00 0.0000e+00 -1.0000e+00
       22  1    3    3    0    0 -1.1193662908e+01 +6.6810023365e+00 -7.3609863092e+01 7.4755239455e+01 0.0000000000e+00 0.0000e+00 -1.0000e+00
<mgrwt>
<rscale>  2 0.12500000E+03</rscale>
<asrwt>0</asrwt>
<pdfrwt beam="1">  1       21 0.29693740E-02 0.12500000E+03</pdfrwt>
<pdfrwt beam="2">  1       21 0.28449675E-01 0.12500000E+03</pdfrwt>
<totfact> 0.74872025E+06</totfact>
</mgrwt>
</event>
<event>
 6      0 +9.8758382e+01 1.25000000e+02 7.54677100e-03 1.12640300e-01
       21 -1    0    0  502  501 +0.0000000000e+00 +0.0000000000e+00 +8.8207218612e+01 8.8207218612e+01 0.0000000000e+00 0.0000e+00 -1.0000e+00
       21 -1    0    0  501  502 -0.0000000000e+00 -0.0000000000e+00 -4.4284924312e+01 4.4284924312e+01 0.0000000000e+00 0.0000e+00 -1.0000e+00
       25  2    1    2    0    0 +0.0000000000e+00 +0.0000000000e+00 +4.3922294300e+01 1.3249214292e+02 1.2500000000e+02 0.0000e+00 0.0000e+00
      -15  1    3    3    0    0 -4.1078169942e+01 +2.1840222050e+01 +1.6653457793e+01 4.9445998124e+01 1.7770000000e+00 0.0000e+00 -1.0000e+00
       15  1    3    3    0    0 +6.5431052805e+00 -3.3244795413e+01 +3.1667877306e+01 4.6411645423e+01 1.7770000000e+00 0.0000e+00 -1.0000e+00
       22  1    3    3    0    0 +3.4535064661e+01 +1.1404573363e+01 -4.3990407977e+00 3.6634499378e+01 0.0000000000e+00 0.0000e+00 -1.0000e+00
<mgrwt>
<rscale>  2 0.12500000E+03</rscale>
<asrwt>0</asrwt>
<pdfrwt beam="1">  1       21 0.12971650E-01 0.12500000E+03</pdfrwt>
<pdfrwt beam="2">  1       21 0.65124888E-02 0.12500000E+03</pdfrwt>
<totfact> 0.87648343E+06</totfact>
</mgrwt>
</event>
<event>
 6      0 +9.8758382e+01 1.25000000e+02 7.54677100e-03 1.12640300e-01
       21 -1    0    0  502  501 +0.0000000000e+00 +0.0000000000e+00 +8.5152542132e+01 8.5152542132e+01 0.0000000000e+00 0.0000e+00 -1.0000e+00
       21 -1    0    0  501  502 -0.0000000000e+00 -0.0000000000e+00 -4.5873557057e+01 4.5873557057e+01 0.0000000000e+00 0.0000e+00 -1.0000e+00
       25  2    1    2    0    0 +0.0000000000e+00 +0.0000000000e+00 +3.9278985075e+01 1.3102609919e+02 1.2500000000e+02 0.0000e+00 0.0000e+00
      -15  1    3    3    0    0 -1.9139447232e+01 +3.2757129295e+01 -5.7632501193e+00 3.8415110841e+01 1.7770000000e+00 0.0000e+00 -1.0000e+00
       15  1    3    3    0    0 -1.4925975703e+01 +1.3464491572e+01 +2.4239271788e+01 3.1540090516e+01 1.7770000000e+00 0.0000e+00 -1.0000e+00
       22  1    3    3    0    0 +3.4065422935e+01 -4.6221620868e+01 +2.0802963405e+01 6.1070897830e+01 0.0000000000e+00 0.0000e+00 -1.0000e+00
<mgrwt>
<rscale>  2 0.12500000E+03</rscale>
<asrwt>0</asrwt>
<pdfrwt beam="1">  1       21 0.12522433E-01 0.12500000E+03</pdfrwt>
<pdfrwt beam="2">  1       21 0.67461113E-02 0.12500000E+03</pdfrwt>
<totfact> 0.87911363E+06</totfact>
</mgrwt>
</event>
<event>
 6      0 +9.8758382e+01 1.25000000e+02 7.54677100e-03 1.12640300e-01
       21 -1    0    0  502  501 +0.0000000000e+00 +0.0000000000e+00 +2.2791733047e+02 2.2791733047e+02 0.0000000000e+00 0.0000e+00 1.0000e+00
       21 -1    0    0  501  502 -0.0000000000e+00 -0.0000000000e+00 -1.7138889754e+01 1.7138889754e+01 0.0000000000e+00 0.0000e+00 1.0000e+00
       25  2    1    2    0    0 +0.0000000000e+00 +0.0000000000e+00 +2.1077844072e+02 2.4505622023e+02 1.2500000000e+02 0.0000e+00 0.0000e+00
      -15  1    3    3    0    0 +4.5670678399e+01 -1.7143724469e+01 +8.1649213776e+01 9.5128702258e+01 1.7770000000e+00 0.0000e+00 -1.0000e+00
       15  1    3    3    0    0 -2.0091789246e+01 -2.1700313968e+01 +4.7695428008e+01 5.6147975950e+01 1.7770000000e+00 0.0000e+00 -1.0000e+00
       22  1    3    3    0    0 -2.5578889153e+01 +3.8844038436e+01 +8.1433798931e+01 9.3779542016e+01 0.0000000000e+00 0.0000e+00 -1.0000e+00
<mgrwt>
<rscale>  2 0.12500000E+03</rscale>
<asrwt>0</asrwt>
<pdfrwt beam="1">  1       21 0.33517253E-01 0.12500000E+03</pdfrwt>
<pdfrwt beam="2">  1       21 0.25204251E-02 0.12500000E+03</pdfrwt>
<totfact> 0.70643020E+06</totfact>
</mgrwt>
</event>
<event>
 6      0 +9.8758382e+01 1.25000000e+02 7.54677100e-03 1.12640300e-01
       21 -1    0    0  502  501 +0.0000000000e+00 +0.0000000000e+00 +3.3398951860e+02 3.3398951860e+02 0.0000000000e+00 0.0000e+00 1.0000e+00
       21 -1    0    0  501  502 -0.0000000000e+00 -0.0000000000e+00 -1.1695726310e+01 1.1695726310e+01 0.0000000000e+00 0.0000e+00 1.0000e+00
       25  2    1    2    0    0 +0.0000000000e+00 +0.0000000000e+00 +3.2229379229e+02 3.4568524491e+02 1.2500000000e+02 0.0000e+00 0.0000e+00
      -15  1    3    3    0    0 +1.5465636821e+01 +2.7177377013e+01 +7.8190223976e+01 8.4229831996e+01 1.7770000000e+00 0.0000e+00 -1.0000e+00
       15  1    3    3    0    0 -4.0929270324e+01 -2.8526366662e+00 +2.0396771300e+02 2.0806087663e+02 1.7770000000e+00 0.0000e+00 -1.0000e+00
       22  1    3    3    0    0 +2.5463633503e+01 -2.4324740346e+01 +4.0135855313e+01 5.3394536291e+01 0.0000000000e+00 0.0000e+00 -1.0000e+00
<mgrwt>
<rscale>  2 0.12500000E+03</rscale>
<asrwt>0</asrwt>
<pdfrwt beam="1">  1       21 0.49116099E-01 0.12500000E+03</pdfrwt>
<pdfrwt beam="2">  1       21 0.17199600E-02 0.12500000E+03</pdfrwt>
<totfact> 0.58973022E+06</totfact>
</mgrwt>
</event>
<event>
 6      0 +9.8758382e+01 1.25000000e+02 7.54677100e-03 1.12640300e-01
       21 -1    0    0  502  501 +0.0000000000e+00 +0.0000000000e+00 +8.0558327343e+02 8.0558327343e+02 0.0000000000e+00 0.0000e+00 -1.0000e+00
       21 -1    0    0  501  502 -0.0000000000e+00 -0.0000000000e+00 -4.8489710857e+00 4.8489710857e+00 0.0000000000e+00 0.0000e+00 -1.0000e+00
       25  2    1    2    0    0 +0.0000000000e+00 +0.0000000000e+00 +8.0073430234e+02 8.1043224451e+02 1.2500000000e+02 0.0000e+00 0.0000e+00
      -15  1    3    3    0    0 -4.8486150390e+01 -2.2660767186e+01 +2.8969436015e+02 2.9460209976e+02 1.7770000000e+00 0.0000e+00 -1.0000e+00
       15  1    3    3    0    0 -4.6924574150e+00 +9.9918147993e+00 +3.7110396163e+01 3.8758157231e+01 1.7770000000e+00 0.0000e+00 -1.0000e+00
       22  1    3    3    0    0 +5.3178607804e+01 +1.2668952387e+01 +4.7392954608e+02 4.7707198758e+02 0.0000000000e+00 0.0000e+00 -1.0000e+00
<mgrwt>
<rscale>  2 0.12500000E+03</rscale>
<asrwt>0</asrwt>
<pdfrwt beam="1">  1       21 0.11846804E+00 0.12500000E+03</pdfrwt>
<pdfrwt beam="2">  1       21 0.71308454E-03 0.12500000E+03</pdfrwt>
<totfact> 0.27850970E+06</totfact>
</mgrwt>
</event>
<event>
 6      0 +9.8758382e+01 1.25000000e+02 7.54677100e-03 1.12640300e-01
       21 -1    0    0  502  501 +0.0000000000e+00 +0.0000000000e+00 +1.3930282479e+02 1.3930282479e+02 0.0000000000e+00 0.0000e+00 1.0000e+00
       21 -1    0    0  501  502 -0.0000000000e+00 -0.0000000000e+00 -2.8041427055e+01 2.8041427055e+01 0.0000000000e+00 0.0000e+00 1.0000e+00
       25  2    1    2    0    0 +0.0000000000e+00 +0.0000000000e+00 +1.1126139774e+02 1.6734425185e+02 1.2500000000e+02 0.0000e+00 0.0000e+00
      -15  1    3    3    0    0 -1.9994254381e+01 -2.9747992026e+01 +5.7739749537e+01 6.7983451247e+01 1.7770000000e+00 0.0000e+00 -1.0000e+00
       15  1    3    3    0    0 -2.6318532467e+01 +1.7196016951e+01 +3.7062373713e+01 4.8632760815e+01 1.7770000000e+00 0.0000e+00 -1.0000e+00
       22  1    3    3    0    0 +4.6312786848e+01 +1.2551975075e+01 +1.6459274488e+01 5.0728039787e+01 0.0000000000e+00 0.0000e+00 -1.0000e+00
<mgrwt>
<rscale>  2 0.12500000E+03</rscale>
<asrwt>0</asrwt>
<pdfrwt beam="1">  1       21 0.20485709E-01 0.12500000E+03</pdfrwt>
<pdfrwt beam="2">  1       21 0.41237393E-02 0.12500000E+03</pdfrwt>
<totfact> 0.81788084E+06</totfact>
</mgrwt>
</event>
<event>
 6      0 +9.8758382e+01 1.25000000e+02 7.54677100e-03 1.12640300e-01
       21 -1    0    0  502  501 +0.0000000000e+00 +0.0000000000e+00 +1.0063158347e+01 1.0063158347e+01 0.0000000000e+00 0.0000e+00 -1.0000e+00
       21 -1    0    0  501  502 -0.0000000000e+00 -0.0000000000e+00 -3.8817336121e+02 3.8817336121e+02 0.0000000000e+00 0.0000e+00 -1.0000e+00
       25  2    1    2    0    0 +0.0000000000e+00 +0.0000000000e+00 -3.7811020287e+02 3.9823651956e+02 1.2500000000e+02 0.0000e+00 0.0000e+00
      -15  1    3    3    0    0 +1.0701852070e+01 -5.5517691666e+01 -1.4626480204e+02 1.5682249128e+02 1.7770000000e+00 0.0000e+00 -1.0000e+00
       15  1    3    3    0    0 +1.2768168621e+01 +2.9781161551e+01 -1.0964231354e+02 1.1434394763e+02 1.7770000000e+00 0.0000e+00 -1.0000e+00
       22  1    3    3    0    0 -2.3470020691e+01 +2.5736530115e+01 -1.2220308732e+02 1.2707008068e+02 0.0000000000e+00 0.0000e+00 -1.0000e+00
<mgrwt>
<rscale>  2 0.12500000E+03</rscale>
<asrwt>0</asrwt>
<pdfrwt beam="1">  1       21 0.14798763E-02 0.12500000E+03</pdfrwt>
<pdfrwt beam="2">  1       21 0.57084315E-01 0.12500000E+03</pdfrwt>
<totfact> 0.53819124E+06</totfact>
</mgrwt>
</event>
<event>
 6      0 +9.8758382e+01 1.25000000e+02 7.54677100e-03 1.12640300e-01
       21 -1    0    0  502  501 +0.0000000000e+00 +0.0000000000e+00 +1.5756109096e+02 1.5756109096e+02 0.0000000000e+00 0.0000e+00 1.0000e+00
       21 -1    0    0  501  502 -0.0000000000e+00 -0.0000000000e+00 -2.4791971013e+01 2.4791971013e+01 0.0000000000e+00 0.0000e+00 1.0000e+00
       25  2    1    2    0    0 +0.0000000000e+00 +0.0000000000e+00 +1.3276911995e+02 1.8235306198e+02 1.2500000000e+02 0.0000e+00 0.0000e+00
      -15  1    3    3    0    0 -3.9804383507e+01 -3.5163312354e-01 +1.9741139103e+01 4.4467773660e+01 1.7770000000e+00 0.0000e+00 -1.0000e+00
       15  1    3    3    0    0 -7.4873754530e+00 +1.4636077199e+01 +7.1379668558e+01 7.3269982663e+01 1.7770000000e+00 0.0000e+00 -1.0000e+00
       22  1    3    3    0    0 +4.7291758960e+01 -1.4284444075e+01 +4.1648312284e+01 6.4615305649e+01 0.0000000000e+00 0.0000e+00 -1.0000e+00
<mgrwt>
<rscale>  2 0.12500000E+03</rscale>
<asrwt>0</asrwt>
<pdfrwt beam="1">  1       21 0.23170748E-01 0.12500000E+03</pdfrwt>
<pdfrwt beam="2">  1       21 0.36458781E-02 0.12500000E+03</pdfrwt>
<totfact> 0.79447590E+06</totfact>
</mgrwt>
</event>
<event>
 6      0 +9.8758382e+01 1.25000000e+02 7.54677100e-03 1.12640300e-01
       21 -1    0    0  502  501 +0.0000000000e+00 +0.0000000000e+00 +2.6150544692e+02 2.6150544692e+02 0.0000000000e+00 0.0000e+00 -1.0000e+00
       21 -1    0    0  501  502 -0.0000000000e+00 -0.0000000000e+00 -1.4937547366e+01 1.4937547366e+01 0.0000000000e+00 0.0000e+00 -1.0000e+00
       25  2    1    2    0    0 +0.0000000000e+00 +0.0000000000e+00 +2.4656789956e+02 2.7644299429e+02 1.2500000000e+02 0.0000e+00 0.0000e+00
      -15  1    3    3    0    0 -4.5718137342e+00 -2.4897175415e+01 +4.5629309614e+00 2.5782724689e+01 1.7770000000e+00 0.0000e+00 -1.0000e+00
       15  1    3    3    0    0 -2.5821852992e+00 -1.2354248146e+01 +1.5770599972e+02 1.5822021111e+02 1.7770000000e+00 0.0000e+00 -1.0000e+00
       22  1    3    3    0    0 +7.1539990334e+00 +3.7251423561e+01 +8.4298968893e+01 9.2440058502e+01 0.0000000000e+00 0.0000e+00 -1.0000e+00
<mgrwt>
<rscale>  2 0.12500000E+03</rscale>
<asrwt>0</asrwt>
<pdfrwt beam="1">  1       21 0.38456681E-01 0.12500000E+03</pdfrwt>
<pdfrwt beam="2">  1       21 0.21966983E-02 0.12500000E+03</pdfrwt>
<totfact> 0.66717494E+06</totfact>
</mgrwt>
</event>
<event>
 6      0 +9.8758382e+01 1.25000000e+02 7.54677100e-03 1.12640300e-01
       21 -1    0    0  502  501 +0.0000000000e+00 +0.0000000000e+00 +1.8858547275e+01 1.8858547275e+01 0.0000000000e+00 0.0000e+00 1.0000e+00
       21 -1    0    0  501  502 -0.0000000000e+00 -0.0000000000e+00 -2.0713419454e+02 2.0713419454e+02 0.0000000000e+00 0.0000e+00 1.0000e+00
       25  2    1    2    0    0 +0.0000000000e+00 +0.0000000000e+00 -1.8827564726e+02 2.2599274181e+02 1.2500000000e+02 0.0000e+00 0.0000e+00
      -15  1    3    3    0    0 -2.9246205036e+01 +6.4936833853e+00 -5.8850244919e+01 6.6060710630e+01 1.7770000000e+00 0.0000e+00 -1.0000e+00
       15  1    3    3    0    0 -2.1703682335e+01 -2.7373634017e+01 -7.3764252430e+01 8.1637542416e+01 1.7770000000e+00 0.0000e+00 -1.0000e+00
       22  1    3    3    0    0 +5.0949887371e+01 +2.0879950632e+01 -5.5661149915e+01 7.8294488768e+01 0.0000000000e+00 0.0000e+00 -1.0000e+00
<mgrwt>
<rscale>  2 0.12500000E+03</rscale>
<asrwt>0</asrwt>
<pdfrwt beam="1">  1       21 0.27733156E-02 0.12500000E+03</pdfrwt>
<pdfrwt beam="2">  1       21 0.30460912E-01 0.12500000E+03</pdfrwt>
<totfact> 0.73177191E+06</totfact>
</mgrwt>
</event>
<event>
 6      0 +9.8758382e+01 1.25000000e+02 7.54677100e-03 1.12640300e-01
       21 -1    0    0  502  501 +0.0000000000e+00 +0.0000000000e+00 +6.7928279488e+02 6.7928279488e+02 0.0000000000e+00 0.0000e+00 -1.0000e+00
       21 -1    0    0  501  502 -0.0000000000e+00 -0.0000000000e+00 -5.7505504768e+00 5.7505504768e+00 0.0000000000e+00 0.0000e+00 -1.0000e+00
       25  2    1    2    0    0 +0.0000000000e+00 +0.0000000000e+00 +6.7353224441e+02 6.8503334536e+02 1.2500000000e+02 0.0000e+00 0.0000e+00
      -15  1    3    3    0    0 +1.3758649584e+01 +5.2361968226e+00 +5.0712253231e+02 5.0733927376e+02 1.7770000000e+00 0.0000e+00 -1.0000e+00
       15  1    3    3    0    0 +2.0956292498e+01 +6.5791636205e+00 +9.3750105538e+01 9.6305200309e+01 1.7770000000e+00 0.0000e+00 -1.0000e+00
       22  1    3    3    0    0 -3.4714942082e+01 -1.1815360443e+01 +7.2659606670e+01 8.1388871399e+01 0.0000000000e+00 0.0000e+00 -1.0000e+00
<mgrwt>
<rscale>  2 0.12500000E+03</rscale>
<asrwt>0</asrwt>
<pdfrwt beam="1">  1       21 0.99894474E-01 0.12500000E+03</pdfrwt>
<pdfrwt beam="2">  1       21 0.84566965E-03 0.12500000E+03</pdfrwt>
<totfact> 0.33683523E+06</totfact>
</mgrwt>
</event>
<event>
 6      0 +9.8758382e+01 1.25000000e+02 7.54677100e-03 1.12640300e-01
       21 -1    0    0  502  501 +0.0000000000e+00 +0.0000000000e+00 +2.4630305048e+01 2.4630305048e+01 0.0000000000e+00 0.0000e+00 1.0000e+00
       21 -1    0    0  501  502 -0.0000000000e+00 -0.0000000000e+00 -1.5859527490e+02 1.5859527490e+02 0.0000000000e+00 0.0000e+00 1.0000e+00
       25  2    1    2    0    0 +0.0000000000e+00 +0.0000000000e+00 -1.3396496985e+02 1.8322557995e+02 1.2500000000e+02 0.0000e+00 0.0000e+00
      -15  1    3    3    0    0 -1.0036738191e+01 +3.7172489790e+01 -6.8545755140e+01 7.8639737966e+01 1.7770000000e+00 0.0000e+00 -1.0000e+00
       15  1    3    3    0    0 -2.4119702264e+00 -5.3927003451e+00 -6.9891368154e+01 7.0163094920e+01 1.7770000000e+00 0.0000e+00 -1.0000e+00
       22  1    3    3    0    0 +1.2448708417e+01 -3.1779789445e+01 +4.4721534494e+00 3.4422747056e+01 0.0000000000e+00 0.0000e+00 -1.0000e+00
<mgrwt>
<rscale>  2 0.12500000E+03</rscale>
<asrwt>0</asrwt>
<pdfrwt beam="1">  1       21 0.36221036E-02 0.12500000E+03</pdfrwt>
<pdfrwt beam="2">  1       21 0.23322835E-01 0.12500000E+03</pdfrwt>
<totfact> 0.79315219E+06</totfact>
</mgrwt>
</event>
<event>
 6      0 +9.8758382e+01 1.25000000e+02 7.54677100e-03 1.12640300e-01
       21 -1    0    0  502  501 +0.0000000000e+00 +0.0000000000e+00 +5.3383624339e+01 5.3383624339e+01 0.0000000000e+00 0.0000e+00 1.0000e+00
       21 -1    0    0  501  502 -0.0000000000e+00 -0.0000000000e+00 -7.3173188376e+01 7.3173188376e+01 0.0000000000e+00 0.0000e+00 1.0000e+00
       25  2    1    2    0    0 +0.0000000000e+00 +0.0000000000e+00 -1.9789564037e+01 1.2655681272e+02 1.2500000000e+02 0.0000e+00 0.0000e+00
      -15  1    3    3    0    0 -7.7338457014e+00 -1.8641164016e+01 -2.2492451984e+01 3.0271661509e+01 1.7770000000e+00 0.0000e+00 -1.0000e+00
       15  1    3    3    0    0 +3.4845131633e+01 -9.1134709485e-01 +3.5267695713e+01 4.9618361943e+01 1.7770000000e+00 0.0000e+00 -1.0000e+00
       22  1    3    3    0    0 -2.7111285931e+01 +1.9552511111e+01 -3.2564807764e+01 4.6666789265e+01 0.0000000000e+00 0.0000e+00 -1.0000e+00
<mgrwt>
<rscale>  2 0.12500000E+03</rscale>
<asrwt>0</asrwt>
<pdfrwt beam="1">  1       21 0.78505330E-02 0.12500000E+03</pdfrwt>
<pdfrwt beam="2">  1       21 0.10760763E-01 0.12500000E+03</pdfrwt>
<totfact> 0.88711975E+06</totfact>
</mgrwt>
</event>
<event>
 6      0 +9.8758382e+01 1.25000000e+02 7.54677100e-03 1.12640300e-01
       21 -1    0    0  502  501 +0.0000000000e+00 +0.0000000000e+00 +9.7332076753e+00 9.7332076753e+00 0.0000000000e+00 0.0000e+00 -1.0000e+00
       21 -1    0    0  501  502 -0.0000000000e+00 -0.0000000000e+00 -4.0133223602e+02 4.0133223602e+02 0.0000000000e+00 0.0000e+00 -1.0000e+00
       25  2    1    2    0    0 +0.0000000000e+00 +0.0000000000e+00 -3.9159902835e+02 4.1106544370e+02 1.2500000000e+02 0.0000e+00 0.0000e+00
      -15  1    3    3    0    0 +2.0659828217e+01 -6.4381739284e+00 -1.4670352059e+02 1.4830158215e+02 1.7770000000e+00 0.0000e+00 -1.0000e+00
       15  1    3    3    0    0 +2.0139985207e+01 +3.8407781163e+01 -1.1288104327e+02 1.2093826655e+02 1.7770000000e+00 0.0000e+00 -1.0000e+00
       22  1    3    3    0    0 -4.0799813424e+01 -3.1969607234e+01 -1.3201446449e+02 1.4182559500e+02 0.0000000000e+00 0.0000e+00 -1.0000e+00
<mgrwt>
<rscale>  2 0.12500000E+03</rscale>
<asrwt>0</asrwt>
<pdfrwt beam="1">  1       21 0.14313540E-02 0.12500000E+03</pdfrwt>
<pdfrwt beam="2">  1       21 0.59019448E-01 0.12500000E+03</pdfrwt>
<totfact> 0.52645996E+06</totfact>
</mgrwt>
</event>
<event>
 6      0 +9.8758382e+01 1.25000000e+02 7.54677100e-03 1.12640300e-01
       21 -1    0    0  502  501 +0.0000000000e+00 +0.0000000000e+00 +1.5039317037e+03 1.5039317037e+03 0.0000000000e+00 0.0000e+00 -1.0000e+00
       21 -1    0    0  501  502 -0.0000000000e+00 -0.0000000000e+00 -2.5973586369e+00 2.5973586369e+00 0.0000000000e+00 0.0000e+00 -1.0000e+00
       25  2    1    2    0    0 +0.0000000000e+00 +0.0000000000e+00 +1.5013343451e+03 1.5065290624e+03 1.2500000000e+02 0.0000e+00 0.0000e+00
      -15  1    3    3    0    0 -1.4555216479e+01 -1.4980611629e+01 +1.1281575924e+02 1.1474679217e+02 1.7770000000e+00 0.0000e+00 -1.0000e+00
       15  1    3    3    0    0 +1.0055777711e+01 +1.8110618838e+01 +6.4829269748e+01 6.8081606364e+01 1.7770000000e+00 0.0000e+00 -1.0000e+00
       22  1    3    3    0    0 +4.4994387687e+00 -3.1300072095e+00 +1.3236893123e+03 1.3237006600e+03 0.0000000000e+00 0.0000e+00 -1.0000e+00
<mgrwt>
<rscale>  2 0.12500000E+03</rscale>
<asrwt>0</asrwt>
<pdfrwt beam="1">  1       21 0.22116582E+00 0.12500000E+03</pdfrwt>
<pdfrwt beam="2">  1       21 0.38196555E-03 0.12500000E+03</pdfrwt>
<totfact> 0.10518862E+06</totfact>
</mgrwt>
</event>
<event>
 6      0 +9.8758382e+01 1.25000000e+02 7.54677100e-03 1.12640300e-01
       21 -1    0    0  502  501 +0.0000000000e+00 +0.0000000000e+00 +8.4547746594e+02 8.4547746594e+02 0.0000000000e+00 0.0000e+00 -1.0000e+00
       21 -1    0    0  501  502 -0.0000000000e+00 -0.0000000000e+00 -4.6201704449e+00 4.6201704449e+00 0.0000000000e+00 0.0000e+00 -1.0000e+00
       25  2    1    2    0    0 +0.0000000000e+00 +0.0000000000e+00 +8.4085729549e+02 8.5009763638e+02 1.2500000000e+02 0.0000e+00 0.0000e+00
      -15  1    3    3    0    0 -1.6828468277e+01 +2.2596705191e+01 +3.0629798576e+02 3.0759619998e+02 1.7770000000e+00 0.0000e+00 -1.0000e+00
       15  1    3    3    0    0 +3.4757007615e+01 -1.0104575757e+01 +5.0189731450e+02 5.0320395871e+02 1.7770000000e+00 0.0000e+00 -1.0000e+00
       22  1    3    3    0    0 -1.7928539337e+01 -1.2492129435e+01 +3.2661995212e+01 3.9297477676e+01 0.0000000000e+00 0.0000e+00 -1.0000e+00
<mgrwt>
<rscale>  2 0.12500000E+03</rscale>
<asrwt>0</asrwt>
<pdfrwt beam="1">  1       21 0.12433481E+00 0.12500000E+03</pdfrwt>
<pdfrwt beam="2">  1       21 0.67943742E-03 0.12500000E+03</pdfrwt>
<totfact> 0.26269281E+06</totfact>
</mgrwt>
</event>
<event>
 6      0 +9.8758382e+01 1.25000000e+02 7.54677100e-03 1.12640300e-01
       21 -1    0    0  502  501 +0.0000000000e+00 +0.0000000000e+00 +5.0000116934e+01 5.0000116934e+01 0.0000000000e+00 0.0000e+00 1.0000e+00
       21 -1    0    0  501  502 -0.0000000000e+00 -0.0000000000e+00 -7.8124817292e+01 7.8124817292e+01 0.0000000000e+00 0.0000e+00 1.0000e+00
       25  2    1    2    0    0 +0.0000000000e+00 +0.0000000000e+00 -2.8124700358e+01 1.2812493423e+02 1.2500000000e+02 0.0000e+00 0.0000e+00
      -15  1    3    3    0    0 +5.0121348246e+00 +3.3828847429e+01 -1.5418919025e+01 3.7555468401e+01 1.7770000000e+00 0.0000e+00 -1.0000e+00
       15  1    3    3    0    0 -2.2254218923e+01 -2.8186442869e+01 +2.8281718335e+01 4.5746465900e+01 1.7770000000e+00 0.0000e+00 -1.0000e+00
       22  1    3    3    0    0 +1.7242084098e+01 -5.6424045608e+00 -4.0987499667e+01 4.4822999924e+01 0.0000000000e+00 0.0000e+00 -1.0000e+00
<mgrwt>
<rscale>  2 0.12500000E+03</rscale>
<asrwt>0</asrwt>
<pdfrwt beam="1">  1       21 0.73529585E-02 0.12500000E+03</pdfrwt>
<pdfrwt beam="2">  1       21 0.11488944E-01 0.12500000E+03</pdfrwt>
<totfact> 0.88435609E+06</totfact>
</mgrwt>
</event>
<event>
 6      0 +9.8758382e+01 1.25000000e+02 7.54677100e-03 1.12640300e-01
       21 -1    0    0  502  501 +0.0000000000e+00 +0.0000000000e+00 +9.3389755860e+01 9.3389755860e+01 0.0000000000e+00 0.0000e+00 1.0000e+00
       21 -1    0    0  501  502 -0.0000000000e+00 -0.0000000000e+00 -4.1827392780e+01 4.1827392780e+01 0.0000000000e+00 0.0000e+00 1.0000e+00
       25  2    1    2    0    0 +0.0000000000e+00 +0.0000000000e+00 +5.1562363080e+01 1.3521714864e+02 1.2500000000e+02 0.0000e+00 0.0000e+00
      -15  1    3    3    0    0 -6.0812930692e+00 -1.3813383395e+01 +3.2826724292e+01 3.6173792211e+01 1.7770000000e+00 0.0000e+00 -1.0000e+00
       15  1    3    3    0    0 -3.5790865294e+01 +6.7175080904e+00 +3.7776759677e+01 5.2500973840e+01 1.7770000000e+00 0.0000e+00 -1.0000e+00
       22  1    3    3    0    0 +4.1872158363e+01 +7.0958753044e+00 -1.9041120889e+01 4.6542382589e+01 0.0000000000e+00 0.0000e+00 -1.0000e+00
<mgrwt>
<rscale>  2 0.12500000E+03</rscale>
<asrwt>0</asrwt>
<pdfrwt beam="1">  1       21 0.13733788E-01 0.12500000E+03</pdfrwt>
<pdfrwt beam="2">  1       21 0.61510872E-02 0.12500000E+03</pdfrwt>
<totfact> 0.87167937E+06</totfact>
</mgrwt>
</event>
<event>
 6      0 +9.8758382e+01 1.25000000e+02 7.54677100e-03 1.12640300e-01
       21 -1    0    0  502  501 +0.0000000000e+00 +0.0000000000e+00 +8.5320496397e+02 8.5320496397e+02 0.0000000000e+00 0.0000e+00 -1.0000e+00
       21 -1    0    0  501  502 -0.0000000000e+00 -0.0000000000e+00 -4.5783254493e+00 4.5783254493e+00 0.0000000000e+00 0.0000e+00 -1.0000e+00
       25  2    1    2    0    0 +0.0000000000e+00 +0.0000000000e+00 +8.4862663852e+02 8.5778328942e+02 1.2500000000e+02 0.0000e+00 0.0000e+00
      -15  1    3    3    0    0 +9.1614108831e+00 -4.4862194106e+00 +3.2675694057e+02 3.2692095918e+02 1.7770000000e+00 0.0000e+00 -1.0000e+00
       15  1    3    3    0    0 +3.7559541836e+01 +2.5762721316e+01 +2.6893660057e+02 2.7277186410e+02 1.7770000000e+00 0.0000e+00 -1.0000e+00
       22  1    3    3    0    0 -4.6720952719e+01 -2.1276501905e+01 +2.5293309733e+02 2.5809046608e+02 0.0000000000e+00 0.0000e+00 -1.0000e+00
<mgrwt>
<rscale>  2 0.12500000E+03</rscale>
<asrwt>0</asrwt>
<pdfrwt beam="1">  1       21 0.12547121E+00 0.12500000E+03</pdfrwt>
<pdfrwt beam="2">  1       21 0.67328375E-03 0.12500000E+03</pdfrwt>
<totfact> 0.25974220E+06</totfact>
</mgrwt>
</event>
<event>
 6      0 +9.8758382e+01 1.25000000e+02 7.54677100e-03 1.12640300e-01
       21 -1    0    0  502  501 +0.0000000000e+00 +0.0000000000e+00 +1.5419754838e+02 1.5419754838e+02 0.0000000000e+00 0.0000e+00 -1.0000e+00
       21 -1    0    0  501  502 -0.0000000000e+00 -0.0000000000e+00 -2.5332763336e+01 2.5332763336e+01 0.0000000000e+00 0.0000e+00 -1.0000e+00
       25  2    1    2    0    0 +0.0000000000e+00 +0.0000000000e+00 +1.2886478504e+02 1.7953031171e+02 1.2500000000e+02 0.0000e+00 0.0000e+00
      -15  1    3    3    0    0 +1.9035312735e+01 -4.9766719903e+00 +7.4379171347e+01 7.6957970700e+01 1.7770000000e+00 0.0000e+00 -1.0000e+00
       15  1    3    3    0    0 +1.5336046002e+01 -3.1568302581e+01 +1.2987005318e+01 3.7464277264e+01 1.7770000000e+00 0.0000e+00 -1.0000e+00
       22  1    3    3    0    0 -3.4371358737e+01 +3.6544974572e+01 +4.1498608376e+01 6.5108063747e+01 0.0000000000e+00 0.0000e+00 -1.0000e+00
<mgrwt>
<rscale>  2 0.12500000E+03</rscale>
<asrwt>0</asrwt>
<pdfrwt beam="1">  1       21 0.22676110E-01 0.12500000E+03</pdfrwt>
<pdfrwt beam="2">  1       21 0.37254065E-02 0.12500000E+03</pdfrwt>
<totfact> 0.79878330E+06</totfact>
</mgrwt>
</event>
<event>
 6      0 +9.8758382e+01 1.25000000e+02 7.54677100e-03 1.12640300e-01
       21 -1    0    0  502  501 +0.0000000000e+00 +0.0000000000e+00 +3.5456565088e+01 3.5456565088e+01 0.0000000000e+00 0.0000e+00 1.0000e+00
       21 -1    0    0  501  502 -0.0000000000e+00 -0.0000000000e+00 -1.1017000633e+02 1.1017000633e+02 0.0000000000e+00 0.0000e+00 1.0000e+00
       25  2    1    2    0    0 +0.0000000000e+00 +0.0000000000e+00 -7.4713441239e+01 1.4562657141e+02 1.2500000000e+02 0.0000e+00 0.0000e+00
      -15  1    3    3    0    0 +1.9451658517e+01 -4.2617335820e+01 -2.6853179558e+01 5.4026431613e+01 1.7770000000e+00 0.0000e+00 -1.0000e+00
       15  1    3    3    0    0 +1.3971202092e+01 +5.9376660794e+00 -3.8065352921e+01 4.1019253874e+01 1.7770000000e+00 0.0000e+00 -1.0000e+00
       22  1    3    3    0    0 -3.3422860609e+01 +3.6679669741e+01 -9.7949087624e+00 5.0580885928e+01 0.0000000000e+00 0.0000e+00 -1.0000e+00
<mgrwt>
<rscale>  2 0.12500000E+03</rscale>
<asrwt>0</asrwt>
<pdfrwt beam="1">  1       21 0.52142008E-02 0.12500000E+03</pdfrwt>
<pdfrwt beam="2">  1       21 0.16201471E-01 0.12500000E+03</pdfrwt>
<totfact> 0.85366687E+06</totfact>
</mgrwt>
</event>
<event>
 6      0 +9.8758382e+01 1.25000000e+02 7.54677100e-03 1.12640300e-01
       21 -1    0    0  502  501 +0.0000000000e+00 +0.0000000000e+00 +7.4340483840e+02 7.4340483840e+02 0.0000000000e+00 0.0000e+00 1.0000e+00
       21 -1    0    0  501  502 -0.0000000000e+00 -0.0000000000e+00 -5.2545393818e+00 5.2545393818e+00 0.0000000000e+00 0.0000e+00 1.0000e+00
       25  2    1    2    0    0 +0.0000000000e+00 +0.0000000000e+00 +7.3815029902e+02 7.4865937779e+02 1.2500000000e+02 0.0000e+00 0.0000e+00
      -15  1    3    3    0    0 +2.9636265284e+01 +9.7088780409e+00 +3.7814109403e+02 3.7942906486e+02 1.7770000000e+00 0.0000e+00 -1.0000e+00
       15  1    3    3    0    0 -3.2019526239e+01 +2.9203913563e+00 +3.5323951333e+02 3.5470422926e+02 1.7770000000e+00 0.0000e+00 -1.0000e+00
       22  1    3    3    0    0 +2.3832609556e+00 -1.2629269397e+01 +6.7696914328e+00 1.4526083448e+01 0.0000000000e+00 0.0000e+00 -1.0000e+00
<mgrwt>
<rscale>  2 0.12500000E+03</rscale>
<asrwt>0</asrwt>
<pdfrwt beam="1">  1       21 0.10932417E+00 0.12500000E+03</pdfrwt>
<pdfrwt beam="2">  1       21 0.77272689E-03 0.12500000E+03</pdfrwt>
<totfact> 0.30556166E+06</totfact>
</mgrwt>
</event>
<event>
 6      0 +9.8758382e+01 1.25000000e+02 7.54677100e-03 1.12640300e-01
       21 -1    0    0  502  501 +0.0000000000e+00 +0.0000000000e+00 +2.9241805899e+00 2.9241805899e+00 0.0000000000e+00 0.0000e+00 -1.0000e+00
       21 -1    0    0  501  502 -0.0000000000e+00 -0.0000000000e+00 -1.3358443092e+03 1.3358443092e+03 0.0000000000e+00 0.0000e+00 -1.0000e+00
       25  2    1    2    0    0 +0.0000000000e+00 +0.0000000000e+00 -1.3329201286e+03 1.3387684898e+03 1.2500000000e+02 0.0000e+00 0.0000e+00
      -15  1    3    3    0    0 +4.2658463780e+01 +7.3642990279e+00 -3.2330513973e+02 3.2619526136e+02 1.7770000000e+00 0.0000e+00 -1.0000e+00
       15  1    3    3    0    0 -4.3910096990e+01 -5.6743786843e+00 -1.0094948164e+03 1.0104668412e+03 1.7770000000e+00 0.0000e+00 -1.0000e+00
       22  1    3    3    0    0 +1.2516332096e+00 -1.6899203436e+00 -1.2017019091e-01 2.1063848990e+00 0.0000000000e+00 0.0000e+00 -1.0000e+00
<mgrwt>
<rscale>  2 0.12500000E+03</rscale>
<asrwt>0</asrwt>
<pdfrwt beam="1">  1       21 0.43002585E-03 0.12500000E+03</pdfrwt>
<pdfrwt beam="2">  1       21 0.19644802E+00 0.12500000E+03</pdfrwt>
<totfact> 0.13239228E+06</totfact>
</mgrwt>
</event>
<event>
 6      0 +9.8758382e+01 1.25000000e+02 7.54677100e-03 1.12640300e-01
       21 -1    0    0  502  501 +0.0000000000e+00 +0.0000000000e+00 +1.1837118371e+01 1.1837118371e+01 0.0000000000e+00 0.0000e+00 1.0000e+00
       21 -1    0    0  501  502 -0.0000000000e+00 -0.0000000000e+00 -3.3000007920e+02 3.3000007920e+02 0.0000000000e+00 0.0000e+00 1.0000e+00
       25  2    1    2    0    0 +0.0000000000e+00 +0.0000000000e+00 -3.1816296083e+02 3.4183719757e+02 1.2500000000e+02 0.0000e+00 0.0000e+00
      -15  1    3    3    0    0 -6.9783937253e+00 -4.7952742817e+00 -4.4518645028e+01 4.5351517268e+01 1.7770000000e+00 0.0000e+00 -1.0000e+00
       15  1    3    3    0    0 -3.6058644178e+01 +3.8647082229e+01 -8.5491567847e+01 1.0052755188e+02 1.7770000000e+00 0.0000e+00 -1.0000e+00
       22  1    3    3    0    0 +4.3037037903e+01 -3.3851807947e+01 -1.8815274797e+02 1.9595812844e+02 0.0000000000e+00 0.0000e+00 -1.0000e+00
<mgrwt>
<rscale>  2 0.12500000E+03</rscale>
<asrwt>0</asrwt>
<pdfrwt beam="1">  1       21 0.17407526E-02 0.12500000E+03</pdfrwt>
<pdfrwt beam="2">  1       21 0.48529426E-01 0.12500000E+03</pdfrwt>
<totfact> 0.59372586E+06</totfact>
</mgrwt>
</event>
<event>
 6      0 +9.8758382e+01 1.25000000e+02 7.54677100e-03 1.12640300e-01
       21 -1    0    0  502  501 +0.0000000000e+00 +0.0000000000e+00 +4.5366072334e+02 4.5366072334e+02 0.0000000000e+00 0.0000e+00 1.0000e+00
       21 -1    0    0  501  502 -0.0000000000e+00 -0.0000000000e+00 -8.6105095703e+00 8.6105095703e+00 0.0000000000e+00 0.0000e+00 1.0000e+00
       25  2    1    2    0    0 +0.0000000000e+00 +0.0000000000e+00 +4.4505021377e+02 4.6227123291e+02 1.2500000000e+02 0.0000e+00 0.0000e+00
      -15  1    3    3    0    0 -1.5126148217e+01 +1.2606127684e+01 +4.6066575873e+01 5.0129850954e+01 1.7770000000e+00 0.0000e+00 -1.0000e+00
       15  1    3    3    0    0 -3.4935192973e+01 +1.8557275793e+01 +2.2442287723e+02 2.2788950337e+02 1.7770000000e+00 0.0000e+00 -1.0000e+00
       22  1    3    3    0    0 +5.0061341190e+01 -3.1163403476e+01 +1.7456076068e+02 1.8425187860e+02 0.0000000000e+00 0.0000e+00 -1.0000e+00
<mgrwt>
<rscale>  2 0.12500000E+03</rscale>
<asrwt>0</asrwt>
<pdfrwt beam="1">  1       21 0.66714796E-01 0.12500000E+03</pdfrwt>
<pdfrwt beam="2">  1       21 0.12662517E-02 0.12500000E+03</pdfrwt>
<totfact> 0.48267179E+06</totfact>
</mgrwt>
</event>
<event>
 6      0 +9.8758382e+01 1.25000000e+02 7.54677100e-03 1.12640300e-01
       21 -1    0    0  502  501 +0.0000000000e+00 +0.0000000000e+00 +5.4647635314e+01 5.4647635314e+01 0.0000000000e+00 0.0000e+00 -1.0000e+00
       21 -1    0    0  501  502 -0.0000000000e+00 -0.0000000000e+00 -7.1480677572e+01 7.1480677572e+01 0.0000000000e+00 0.0000e+00 -1.0000e+00
       25  2    1    2    0    0 +0.0000000000e+00 +0.0000000000e+00 -1.6833042258e+01 1.2612831289e+02 1.2500000000e+02 0.0000e+00 0.0000e+00
      -15  1    3    3    0    0 -2.3005823797e+01 +2.6477972968e+01 -3.8744227174e+01 5.2293631060e+01 1.7770000000e+00 0.0000e+00 -1.0000e+00
       15  1    3    3    0    0 +9.4541068422e+00 +1.4192843275e+01 +2.5595458896e+01 3.0807502033e+01 1.7770000000e+00 0.0000e+00 -1.0000e+00
       22  1    3    3    0    0 +1.3551716955e+01 -4.0670816243e+01 -3.6842739794e+00 4.3027179794e+01 0.0000000000e+00 0.0000e+00 -1.0000e+00
<mgrwt>
<rscale>  2 0.12500000E+03</rscale>
<asrwt>0</asrwt>
<pdfrwt beam="1">  1       21 0.80364170E-02 0.12500000E+03</pdfrwt>
<pdfrwt beam="2">  1       21 0.10511864E-01 0.12500000E+03</pdfrwt>
<totfact> 0.88788617E+06</totfact>
</mgrwt>
</event>
<event>
 6      0 +9.8758382e+01 1.25000000e+02 7.54677100e-03 1.12640300e-01
       21 -1    0    0  502  501 +0.0000000000e+00 +0.0000000000e+00 +1.5838727439e+01 1.5838727439e+01 0.0000000000e+00 0.0000e+00 1.0000e+00
       21 -1    0    0  501  502 -0.0000000000e+00 -0.0000000000e+00 -2.4662650552e+02 2.4662650552e+02 0.0000000000e+00 0.0000e+00 1.0000e+00
       25  2    1    2    0    0 +0.0000000000e+00 +0.0000000000e+00 -2.3078777808e+02 2.6246523295e+02 1.2500000000e+02 0.0000e+00 0.0000e+00
      -15  1    3    3    0    0 -5.2188133608e+01 +2.8178934677e+00 -8.4060681490e+01 9.8999483406e+01 1.7770000000e+00 0.0000e+00 -1.0000e+00
       15  1    3    3    0    0 -8.4023560966e+00 -4.9788404207e+00 -3.4609365970e+01 3.6004921632e+01 1.7770000000e+00 0.0000e+00 -1.0000e+00
       22  1    3    3    0    0 +6.0590489704e+01 +2.1609469530e+00 -1.1211773065e+02 1.2746082794e+02 0.0000000000e+00 0.0000e+00 -1.0000e+00
<mgrwt>
<rscale>  2 0.12500000E+03</rscale>
<asrwt>0</asrwt>
<pdfrwt beam="1">  1       21 0.23292251E-02 0.12500000E+03</pdfrwt>
<pdfrwt beam="2">  1       21 0.36268597E-01 0.12500000E+03</pdfrwt>
<totfact> 0.68427008E+06</totfact>
</mgrwt>
</event>
<event>
 6      0 +9.8758382e+01 1.25000000e+02 7.54677100e-03 1.12640300e-01
       21 -1    0    0  502  501 +0.0000000000e+00 +0.0000000000e+00 +9.8181505606e+01 9.8181505606e+01 0.0000000000e+00 0.0000e+00 1.0000e+00
       21 -1    0    0  501  502 -0.0000000000e+00 -0.0000000000e+00 -3.9786006294e+01 3.9786006294e+01 0.0000000000e+00 0.0000e+00 1.0000e+00
       25  2    1    2    0    0 +0.0000000000e+00 +0.0000000000e+00 +5.8395499312e+01 1.3796751190e+02 1.2500000000e+02 0.0000e+00 0.0000e+00
      -15  1    3    3    0    0 +6.5590459793e-01 +5.5482042148e+00 +5.9692401431e+01 5.9979607356e+01 1.7770000000e+00 0.0000e+00 -1.0000e+00
       15  1    3    3    0    0 +3.2769745190e+01 -4.0490038903e+00 +1.9696046550e+01 3.8488213924e+01 1.7770000000e+00 0.0000e+00 -1.0000e+00
       22  1    3    3    0    0 -3.3425649787e+01 -1.4992003244e+00 -2.0992948669e+01 3.9499690622e+01 0.0000000000e+00 0.0000e+00 -1.0000e+00
<mgrwt>
<rscale>  2 0.12500000E+03</rscale>
<asrwt>0</asrwt>
<pdfrwt beam="1">  1       21 0.14438457E-01 0.12500000E+03</pdfrwt>
<pdfrwt beam="2">  1       21 0.58508833E-02 0.12500000E+03</pdfrwt>
<totfact> 0.86690919E+06</totfact>
</mgrwt>
</event>
<event>
 6      0 +9.8758382e+01 1.25000000e+02 7.54677100e-03 1.12640300e-01
       21 -1    0    0  502  501 +0.0000000000e+00 +0.0000000000e+00 +2.2889652245e+02 2.2889652245e+02 0.0000000000e+00 0.0000e+00 1.0000e+00
       21 -1    0    0  501  502 -0.0000000000e+00 -0.0000000000e+00 -1.7065571631e+01 1.7065571631e+01 0.0000000000e+00 0.0000e+00 1.0000e+00
       25  2    1    2    0    0 +0.0000000000e+00 +0.0000000000e+00 +2.1183095082e+02 2.4596209408e+02 1.2500000000e+02 0.0000e+00 0.0000e+00
      -15  1    3    3    0    0 -2.6605956973e+01 -2.1725251294e-01 +1.6172554236e+01 3.1187070792e+01 1.7770000000e+00 0.0000e+00 -1.0000e+00
       15  1    3    3    0    0 -2.7100394777e+01 -1.8495235096e+00 +1.1260227800e+02 1.1584594457e+02 1.7770000000e+00 0.0000e+00 -1.0000e+00
       22  1    3    3    0    0 +5.3706351750e+01 +2.0667760225e+00 +8.3056118592e+01 9.8929078723e+01 0.0000000000e+00 0.0000e+00 -1.0000e+00
<mgrwt>
<rscale>  2 0.12500000E+03</rscale>
<asrwt>0</asrwt>
<pdfrwt beam="1">  1       21 0.33661251E-01 0.12500000E+03</pdfrwt>
<pdfrwt beam="2">  1       21 0.25096430E-02 0.12500000E+03</pdfrwt>
<totfact> 0.70525117E+06</totfact>
</mgrwt>
</event>
<event>
 6      0 +9.8758382e+01 1.25000000e+02 7.54677100e-03 1.12640300e-01
       21 -1    0    0  502  501 +0.0000000000e+00 +0.0000000000e+00 +5.0726449878e+00 5.0726449878e+00 0.0000000000e+00 0.0000e+00 1.0000e+00
       21 -1    0    0  501  502 -0.0000000000e+00 -0.0000000000e+00 -7.7006177435e+02 7.7006177435e+02 0.0000000000e+00 0.0000e+00 1.0000e+00
       25  2    1    2    0    0 +0.0000000000e+00 +0.0000000000e+00 -7.6498912937e+02 7.7513441934e+02 1.2500000000e+02 0.0000e+00 0.0000e+00
      -15  1    3    3    0    0 +1.9881352243e+01 -3.2220919953e+01 -2.6808657135e+02 2.7075269771e+02 1.7770000000e+00 0.0000e+00 -1.0000e+00
       15  1    3    3    0    0 -2.9314366954e+01 +4.7702690995e+01 -4.5856326002e+02 4.6197218531e+02 1.7770000000e+00 0.0000e+00 -1.0000e+00
       22  1    3    3    0    0 +9.4330147105e+00 -1.5481771042e+01 -3.8339298211e+01 4.2409536526e+01 0.0000000000e+00 0.0000e+00 -1.0000e+00
<mgrwt>
<rscale>  2 0.12500000E+03</rscale>
<asrwt>0</asrwt>
<pdfrwt beam="1">  1       21 0.74597722E-03 0.12500000E+03</pdfrwt>
<pdfrwt beam="2">  1       21 0.11324438E+00 0.12500000E+03</pdfrwt>
<totfact> 0.29355876E+06</totfact>
</mgrwt>
</event>
<event>
 6      0 +9.8758382e+01 1.25000000e+02 7.54677100e-03 1.12640300e-01
       21 -1    0    0  502  501 +0.0000000000e+00 +0.0000000000e+00 +4.5691147570e+01 4.5691147570e+01 0.0000000000e+00 0.0000e+00 1.0000e+00
       21 -1    0    0  501  502 -0.0000000000e+00 -0.0000000000e+00 -8.5492490509e+01 8.5492490509e+01 0.0000000000e+00 0.0000e+00 1.0000e+00
       25  2    1    2    0    0 +0.0000000000e+00 +0.0000000000e+00 -3.9801342938e+01 1.3118363808e+02 1.2500000000e+02 0.0000e+00 0.0000e+00
      -15  1    3    3    0    0 -8.3620980958e+00 -1.9728312247e+01 +1.1385693385e+00 2.1531025471e+01 1.7770000000e+00 0.0000e+00 -1.0000e+00
       15  1    3    3    0    0 +4.9271545277e+00 +3.6688001075e+01 -6.8052124247e+01 7.7488938683e+01 1.7770000000e+00 0.0000e+00 -1.0000e+00
       22  1    3    3    0    0 +3.4349435680e+00 -1.6959688828e+01 +2.7112211971e+01 3.2163673926e+01 0.0000000000e+00 0.0000e+00 -1.0000e+00
<mgrwt>
<rscale>  2 0.12500000E+03</rscale>
<asrwt>0</asrwt>
<pdfrwt beam="1">  1       21 0.67192864E-02 0.12500000E+03</pdfrwt>
<pdfrwt beam="2">  1       21 0.12572425E-01 0.12500000E+03</pdfrwt>
<totfact> 0.87882909E+06</totfact>
</mgrwt>
</event>
<event>
 6      0 +9.8758382e+01 1.25000000e+02 7.54677100e-03 1.12640300e-01
       21 -1    0    0  502  501 +0.0000000000e+00 +0.0000000000e+00 +1.3524939438e+01 1.3524939438e+01 0.0000000000e+00 0.0000e+00 1.0000e+00
       21 -1    0    0  501  502 -0.0000000000e+00 -0.0000000000e+00 -2.8881829881e+02 2.8881829881e+02 0.0000000000e+00 0.0000e+00 1.0000e+00
       25  2    1    2    0    0 +0.0000000000e+00 +0.0000000000e+00 -2.7529335938e+02 3.0234323825e+02 1.2500000000e+02 0.0000e+00 0.0000e+00
      -15  1    3    3    0    0 +4.7328421854e+00 -4.5620303172e+01 -1.7078840285e+02 1.7684865884e+02 1.7770000000e+00 0.0000e+00 -1.0000e+00
       15  1    3    3    0    0 -3.6439665420e+00 +2.2984422733e+01 -9.9612843943e+01 1.0231050087e+02 1.7770000000e+00 0.0000e+00 -1.0000e+00
       22  1    3    3    0    0 -1.0888756434e+00 +2.2635880439e+01 -4.8921126139e+00 2.3184078571e+01 0.0000000000e+00 0.0000e+00 -1.0000e+00
<mgrwt>
<rscale>  2 0.12500000E+03</rscale>
<asrwt>0</asrwt>
<pdfrwt beam="1">  1       21 0.19889618E-02 0.12500000E+03</pdfrwt>
<pdfrwt beam="2">  1       21 0.42473277E-01 0.12500000E+03</pdfrwt>
<totfact> 0.63681614E+06</totfact>
</mgrwt>
</event>
<event>
 6      0 +9.8758382e+01 1.25000000e+02 7.54677100e-03 1.12640300e-01
       21 -1    0    0  502  501 +0.0000000000e+00 +0.0000000000e+00 +2.1440022510e+01 2.1440022510e+01 0.0000000000e+00 0.0000e+00 -1.0000e+00
       21 -1    0    0  501  502 -0.0000000000e+00 -0.0000000000e+00 -1.8219430498e+02 1.8219430498e+02 0.0000000000e+00 0.0000e+00 -1.0000e+00
       25  2    1    2    0    0 +0.0000000000e+00 +0.0000000000e+00 -1.6075428247e+02 2.0363432749e+02 1.2500000000e+02 0.0000e+00 0.0000e+00
      -15  1    3    3    0    0 -2.9107867668e+01 +1.3533420981e+01 -5.0576690685e+01 5.9929799043e+01 1.7770000000e+00 0.0000e+00 -1.0000e+00
       15  1    3    3    0    0 -1.8518800964e+01 -3.4024860832e+01 -3.4099024753e+01 5.1638535629e+01 1.7770000000e+00 0.0000e+00 -1.0000e+00
       22  1    3    3    0    0 +4.7626668632e+01 +2.0491439851e+01 -7.6078567032e+01 9.2065992819e+01 0.0000000000e+00 0.0000e+00 -1.0000e+00
<mgrwt>
<rscale>  2 0.12500000E+03</rscale>
<asrwt>0</asrwt>
<pdfrwt beam="1">  1       21 0.31529444E-02 0.12500000E+03</pdfrwt>
<pdfrwt beam="2">  1       21 0.26793281E-01 0.12500000E+03</pdfrwt>
<totfact> 0.76291944E+06</totfact>
</mgrwt>
</event>
<event>
 6      0 +9.8758382e+01 1.25000000e+02 7.54677100e-03 1.12640300e-01
       21 -1    0    0  502  501 +0.0000000000e+00 +0.0000000000e+00 +3.4703027149e+01 3.4703027149e+01 0.0000000000e+00 0.0000e+00 1.0000e+00
       21 -1    0    0  501  502 -0.0000000000e+00 -0.0000000000e+00 -1.1256222644e+02 1.1256222644e+02 0.0000000000e+00 0.0000e+00 1.0000e+00
       25  2    1    2    0    0 +0.0000000000e+00 +0.0000000000e+00 -7.7859199287e+01 1.4726525359e+02 1.2500000000e+02 0.0000e+00 0.0000e+00
      -15  1    3    3    0    0 +7.7471125679e-01 -4.4999819734e+00 -4.8829227514e+01 4.9074445529e+01 1.7770000000e+00 0.0000e+00 -1.0000e+00
       15  1    3    3    0    0 -1.2690181141e+00 +1.4581908914e+01 -6.1990194039e+01 6.3719575960e+01 1.7770000000e+00 0.0000e+00 -1.0000e+00
       22  1    3    3    0    0 +4.9430685733e-01 -1.0081926941e+01 +3.2960222270e+01 3.4471232095e+01 0.0000000000e+00 0.0000e+00 -1.0000e+00
<mgrwt>
<rscale>  2 0.12500000E+03</rscale>
<asrwt>0</asrwt>
<pdfrwt beam="1">  1       21 0.51033863E-02 0.12500000E+03</pdfrwt>
<pdfrwt beam="2">  1       21 0.16553269E-01 0.12500000E+03</pdfrwt>
<totfact> 0.85087056E+06</totfact>
</mgrwt>
</event>
<event>
 6      0 +9.8758382e+01 1.25000000e+02 7.54677100e-03 1.12640300e-01
       21 -1    0    0  502  501 +0.0000000000e+00 +0.0000000000e+00 +6.9009266089e+02 6.9009266089e+02 0.0000000000e+00 0.0000e+00 -1.0000e+00
       21 -1    0    0  501  502 -0.0000000000e+00 -0.0000000000e+00 -5.6604717328e+00 5.6604717328e+00 0.0000000000e+00 0.0000e+00 -1.0000e+00
       25  2    1    2    0    0 +0.0000000000e+00 +0.0000000000e+00 +6.8443218916e+02 6.9575313262e+02 1.2500000000e+02 0.0000e+00 0.0000e+00
      -15  1    3    3    0    0 -2.6337850020e+01 -3.1934447164e+01 +1.1305482338e+02 1.2040781569e+02 1.7770000000e+00 0.0000e+00 -1.0000e+00
       15  1    3    3    0    0 +2.6986865705e+01 +1.9933531843e+00 +1.2230413513e+02 1.2527459270e+02 1.7770000000e+00 0.0000e+00 -1.0000e+00
       22  1    3    3    0    0 -6.4901568564e-01 +2.9941093980e+01 +4.4907323082e+02 4.5007072440e+02 0.0000000000e+00 0.0000e+00 -1.0000e+00
<mgrwt>
<rscale>  2 0.12500000E+03</rscale>
<asrwt>0</asrwt>
<pdfrwt beam="1">  1       21 0.10148416E+00 0.12500000E+03</pdfrwt>
<pdfrwt beam="2">  1       21 0.83242279E-03 0.12500000E+03</pdfrwt>
<totfact> 0.33128017E+06</totfact>
</mgrwt>
</event>
<event>
 6      0 +9.8758382e+01 1.25000000e+02 7.54677100e-03 1.12640300e-01
       21 -1    0    0  502  501 +0.0000000000e+00 +0.0000000000e+00 +1.4483683968e+02 1.4483683968e+02 0.0000000000e+00 0.0000e+00 1.0000e+00
       21 -1    0    0  501  502 -0.0000000000e+00 -0.0000000000e+00 -2.6970002995e+01 2.6970002995e+01 0.0000000000e+00 0.0000e+00 1.0000e+00
       25  2    1    2    0    0 +0.0000000000e+00 +0.0000000000e+00 +1.1786683669e+02 1.7180684268e+02 1.2500000000e+02 0.0000e+00 0.0000e+00
      -15  1    3    3    0    0 +2.8562337614e+01 +4.8802091755e+00 +5.3756296816e+00 2.9524205241e+01 1.7770000000e+00 0.0000e+00 -1.0000e+00
       15  1    3    3    0    0 -2.6406239451e+00 +3.2667589865e+01 +1.8195448001e+01 3.7528341015e+01 1.7770000000e+00 0.0000e+00 -1.0000e+00
       22  1    3    3    0    0 -2.5921713669e+01 -3.7547799040e+01 +9.4295759006e+01 1.0475429642e+02 0.0000000000e+00 0.0000e+00 -1.0000e+00
<mgrwt>
<rscale>  2 0.12500000E+03</rscale>
<asrwt>0</asrwt>
<pdfrwt beam="1">  1       21 0.21299535E-01 0.12500000E+03</pdfrwt>
<pdfrwt beam="2">  1       21 0.39661770E-02 0.12500000E+03</pdfrwt>
<totfact> 0.81078416E+06</totfact>
</mgrwt>
</event>
<event>
 6      0 +9.8758382e+01 1.25000000e+02 7.54677100e-03 1.12640300e-01
       21 -1    0    0  502  501 +0.0000000000e+00 +0.0000000000e+00 +2.2884068235e+01 2.2884068235e+01 0.0000000000e+00 0.0000e+00 1.0000e+00
       21 -1    0    0  501  502 -0.0000000000e+00 -0.0000000000e+00 -1.7069735853e+02 1.7069735853e+02 0.0000000000e+00 0.0000e+00 1.0000e+00
       25  2    1    2    0    0 +0.0000000000e+00 +0.0000000000e+00 -1.4781329029e+02 1.9358142676e+02 1.2500000000e+02 0.0000e+00 0.0000e+00
      -15  1    3    3    0    0 +7.5434413604e+00 +4.1331067620e+00 -4.0116418246e+01 4.1066663134e+01 1.7770000000e+00 0.0000e+00 -1.0000e+00
       15  1    3    3    0    0 -5.0833634665e+00 +2.5014687499e+01 -1.1857627669e+02 1.2130567298e+02 1.7770000000e+00 0.0000e+00 -1.0000e+00
       22  1    3    3    0    0 -2.4600778939e+00 -2.9147794261e+01 +1.0879404645e+01 3.1209090645e+01 0.0000000000e+00 0.0000e+00 -1.0000e+00
<mgrwt>
<rscale>  2 0.12500000E+03</rscale>
<asrwt>0</asrwt>
<pdfrwt beam="1">  1       21 0.33653041E-02 0.12500000E+03</pdfrwt>
<pdfrwt beam="2">  1       21 0.25102553E-01 0.12500000E+03</pdfrwt>
<totfact> 0.77764779E+06</totfact>
</mgrwt>
</event>
<event>
 6      0 +9.8758382e+01 1.25000000e+02 7.54677100e-03 1.12640300e-01
       21 -1    0    0  502  501 +0.0000000000e+00 +0.0000000000e+00 +1.8247823877e+02 1.8247823877e+02 0.0000000000e+00 0.0000e+00 1.0000e+00
       21 -1    0    0  501  502 -0.0000000000e+00 -0.0000000000e+00 -2.1406662112e+01 2.1406662112e+01 0.0000000000e+00 0.0000e+00 1.0000e+00
       25  2    1    2    0    0 +0.0000000000e+00 +0.0000000000e+00 +1.6107157665e+02 2.0388490088e+02 1.2500000000e+02 0.0000e+00 0.0000e+00
      -15  1    3    3    0    0 +4.6771629735e+00 +1.8391509681e+01 +2.7188323212e+01 3.3203706569e+01 1.7770000000e+00 0.0000e+00 -1.0000e+00
       15  1    3    3    0    0 -1.1554002330e+01 -3.2673972754e+00 -1.5886505432e+01 1.9992739649e+01 1.7770000000e+00 0.0000e+00 -1.0000e+00
       22  1    3    3    0    0 +6.8768393562e+00 -1.5124112406e+01 +1.4976975886e+02 1.5068845465e+02 0.0000000000e+00 0.0000e+00 -1.0000e+00
<mgrwt>
<rscale>  2 0.12500000E+03</rscale>
<asrwt>0</asrwt>
<pdfrwt beam="1">  1       21 0.26835034E-01 0.12500000E+03</pdfrwt>
<pdfrwt beam="2">  1       21 0.31480386E-02 0.12500000E+03</pdfrwt>
<totfact> 0.76255859E+06</totfact>
</mgrwt>
</event>
<event>
 6      0 +9.8758382e+01 1.25000000e+02 7.54677100e-03 1.12640300e-01
       21 -1    0    0  502  501 +0.0000000000e+00 +0.0000000000e+00 +4.5834478051e+02 4.5834478051e+02 0.0000000000e+00 0.0000e+00 1.0000e+00
       21 -1    0    0  501  502 -0.0000000000e+00 -0.0000000000e+00 -8.5225144173e+00 8.5225144173e+00 0.0000000000e+00 0.0000e+00 1.0000e+00
       25  2    1    2    0    0 +0.0000000000e+00 +0.0000000000e+00 +4.4982226609e+02 4.6686729493e+02 1.2500000000e+02 0.0000e+00 0.0000e+00
      -15  1    3    3    0    0 -3.8150615701e+01 +1.2237146648e+01 +1.1240093391e+02 1.1934129591e+02 1.7770000000e+00 0.0000e+00 -1.0000e+00
       15  1    3    3    0    0 +1.4383376088e+01 +3.0316719676e+01 +1.6267947911e+02 1.6611368292e+02 1.7770000000e+00 0.0000e+00 -1.0000e+00
       22  1    3    3    0    0 +2.3767239613e+01 -4.2553866325e+01 +1.7474185300e+02 1.8141231603e+02 0.0000000000e+00 0.0000e+00 -1.0000e+00
<mgrwt>
<rscale>  2 0.12500000E+03</rscale>
<asrwt>0</asrwt>
<pdfrwt beam="1">  1       21 0.67403628E-01 0.12500000E+03</pdfrwt>
<pdfrwt beam="2">  1       21 0.12533112E-02 0.12500000E+03</pdfrwt>
<totfact> 0.47895625E+06</totfact>
</mgrwt>
</event>
<event>
 6      0 +9.8758382e+01 1.25000000e+02 7.54677100e-03 1.12640300e-01
       21 -1    0    0  502  501 +0.0000000000e+00 +0.0000000000e+00 +1.3165656496e+03 1.3165656496e+03 0.0000000000e+00 0.0000e+00 1.0000e+00
       21 -1    0    0  501  502 -0.0000000000e+00 -0.0000000000e+00 -2.9669997856e+00 2.9669997856e+00 0.0000000000e+00 0.0000e+00 1.0000e+00
       25  2    1    2    0    0 +0.0000000000e+00 +0.0000000000e+00 +1.3135986498e+03 1.3195326493e+03 1.2500000000e+02 0.0000e+00 0.0000e+00
      -15  1    3    3    0    0 +1.9378894170e+00 +1.2105752671e+01 +8.6957535074e+02 8.6966358611e+02 1.7770000000e+00 0.0000e+00 -1.0000e+00
       15  1    3    3    0    0 +2.4388741364e+01 -1.6266214216e+01 +3.7052629669e+02 3.7168843767e+02 1.7770000000e+00 0.0000e+00 -1.0000e+00
       22  1    3    3    0    0 -2.6326630781e+01 +4.1604615441e+00 +7.3497010255e+01 7.8180633439e+01 0.0000000000e+00 0.0000e+00 -1.0000e+00
<mgrwt>
<rscale>  2 0.12500000E+03</rscale>
<asrwt>0</asrwt>
<pdfrwt beam="1">  1       21 0.19361219E+00 0.12500000E+03</pdfrwt>
<pdfrwt beam="2">  1       21 0.43632441E-03 0.12500000E+03</pdfrwt>
<totfact> 0.13593927E+06</totfact>
</mgrwt>
</event>
<event>
 6      0 +9.8758382e+01 1.25000000e+02 7.54677100e-03 1.12640300e-01
       21 -1    0    0  502  501 +0.0000000000e+00 +0.0000000000e+00 +8.2503688359e+02 8.2503688359e+02 0.0000000000e+00 0.0000e+00 -1.0000e+00
       21 -1    0    0  501  502 -0.0000000000e+00 -0.0000000000e+00 -4.7346368116e+00 4.7346368116e+00 0.0000000000e+00 0.0000e+00 -1.0000e+00
       25  2    1    2    0    0 +0.0000000000e+00 +0.0000000000e+00 +8.2030224678e+02 8.2977152040e+02 1.2500000000e+02 0.0000e+00 0.0000e+00
      -15  1    3    3    0    0 +4.3876551513e+01 -1.0816310006e+01 +2.4698245456e+02 2.5108889845e+02 1.7770000000e+00 0.0000e+00 -1.0000e+00
       15  1    3    3    0    0 -1.4395159172e+01 +3.4156089232e+01 +1.9505068195e+02 1.9854920120e+02 1.7770000000e+00 0.0000e+00 -1.0000e+00
       22  1    3    3    0    0 -2.9481392342e+01 -2.3339779227e+01 +3.7826911042e+02 3.8013342090e+02 0.0000000000e+00 0.0000e+00 -1.0000e+00
<mgrwt>
<rscale>  2 0.12500000E+03</rscale>
<asrwt>0</asrwt>
<pdfrwt beam="1">  1       21 0.12132885E+00 0.12500000E+03</pdfrwt>
<pdfrwt beam="2">  1       21 0.69627069E-03 0.12500000E+03</pdfrwt>
<totfact> 0.27067507E+06</totfact>
</mgrwt>
</event>
<event>
 6      0 +9.8758382e+01 1.25000000e+02 7.54677100e-03 1.12640300e-01
       21 -1    0    0  502  501 +0.0000000000e+00 +0.0000000000e+00 +6.3857351635e+00 6.3857351635e+00 0.0000000000e+00 0.0000e+00 -1.0000e+00
       21 -1    0    0  501  502 -0.0000000000e+00 -0.0000000000e+00 -6.1171500227e+02 6.1171500227e+02 0.0000000000e+00 0.0000e+00 -1.0000e+00
       25  2    1    2    0    0 +0.0000000000e+00 +0.0000000000e+00 -6.0532926710e+02 6.1810073743e+02 1.2500000000e+02 0.0000e+00 0.0000e+00
      -15  1    3    3    0    0 +3.3759552352e+01 +2.0702943578e+01 -1.6974082698e+02 1.7430842011e+02 1.7770000000e+00 0.0000e+00 -1.0000e+00
       15  1    3    3    0    0 +1.2904639234e+01 -2.3027405525e+01 -6.3630543666e+01 6.8911500747e+01 1.7770000000e+00 0.0000e+00 -1.0000e+00
       22  1    3    3    0    0 -4.6664191586e+01 +2.3244619472e+00 -3.7195789638e+02 3.7488081650e+02 0.0000000000e+00 0.0000e+00 -1.0000e+00
<mgrwt>
<rscale>  2 0.12500000E+03</rscale>
<asrwt>0</asrwt>
<pdfrwt beam="1">  1       21 0.93907834E-03 0.12500000E+03</pdfrwt>
<pdfrwt beam="2">  1       21 0.89958123E-01 0.12500000E+03</pdfrwt>
<totfact> 0.37390181E+06</totfact>
</mgrwt>
</event>
<event>
 6      0 +9.8758382e+01 1.25000000e+02 7.54677100e-03 1.12640300e-01
       21 -1    0    0  502  501 +0.0000000000e+00 +0.0000000000e+00 +1.1291205019e+01 1.1291205019e+01 0.0000000000e+00 0.0000e+00 1.0000e+00
       21 -1    0    0  501  502 -0.0000000000e+00 -0.0000000000e+00 -3.4595510341e+02 3.4595510341e+02 0.0000000000e+00 0.0000e+00 1.0000e+00
       25  2    1    2    0    0 +0.0000000000e+00 +0.0000000000e+00 -3.3466389839e+02 3.5724630843e+02 1.2500000000e+02 0.0000e+00 0.0000e+00
      -15  1    3    3    0    0 -4.5541769200e+01 +2.9067570366e+01 -1.3552233544e+02 1.4590557742e+02 1.7770000000e+00 0.0000e+00 -1.0000e+00
       15  1    3    3    0    0 +4.0044057774e+00 -2.8143048399e+01 -6.6454316783e+01 7.2300763391e+01 1.7770000000e+00 0.0000e+00 -1.0000e+00
       22  1    3    3    0    0 +4.1537363423e+01 -9.2452196680e-01 -1.3268724615e+02 1.3903996761e+02 0.0000000000e+00 0.0000e+00 -1.0000e+00
<mgrwt>
<rscale>  2 0.12500000E+03</rscale>
<asrwt>0</asrwt>
<pdfrwt beam="1">  1       21 0.16604712E-02 0.12500000E+03</pdfrwt>
<pdfrwt beam="2">  1       21 0.50875754E-01 0.12500000E+03</pdfrwt>
<totfact> 0.57792015E+06</totfact>
</mgrwt>
</event>
<event>
 6      0 +9.8758382e+01 1.25000000e+02 7.54677100e-03 1.12640300e-01
       21 -1    0    0  502  501 +0.0000000000e+00 +0.0000000000e+00 +9.7959974631e+00 9.7959974631e+00 0.0000000000e+00 0.0000e+00 1.0000e+00
       21 -1    0    0  501  502 -0.0000000000e+00 -0.0000000000e+00 -3.9875980110e+02 3.9875980110e+02 0.0000000000e+00 0.0000e+00 1.0000e+00
       25  2    1    2    0    0 +0.0000000000e+00 +0.0000000000e+00 -3.8896380364e+02 4.0855579857e+02 1.2500000000e+02 0.0000e+00 0.0000e+00
      -15  1    3    3    0    0 -1.2738505724e+01 +4.3171996447e+00 -2.3889591971e+01 2.7473224681e+01 1.7770000000e+00 0.0000e+00 -1.0000e+00
       15  1    3    3    0    0 -4.6864135786e+01 +8.1191687980e+00 -1.3751589740e+02 1.4551957907e+02 1.7770000000e+00 0.0000e+00 -1.0000e+00
       22  1    3    3    0    0 +5.9602641510e+01 -1.2436368443e+01 -2.2755831423e+02 2.3556299478e+02 0.0000000000e+00 0.0000e+00 -1.0000e+00
<mgrwt>
<rscale>  2 0.12500000E+03</rscale>
<asrwt>0</asrwt>
<pdfrwt beam="1">  1       21 0.14405877E-02 0.12500000E+03</pdfrwt>
<pdfrwt beam="2">  1       21 0.58641155E-01 0.12500000E+03</pdfrwt>
<totfact> 0.52872923E+06</totfact>
</mgrwt>
</event>
<event>
 6      0 +9.8758382e+01 1.25000000e+02 7.54677100e-03 1.12640300e-01
       21 -1    0    0  502  501 +0.0000000000e+00 +0.0000000000e+00 +1.4912461002e+01 1.4912461002e+01 0.0000000000e+00 0.0000e+00 1.0000e+00
       21 -1    0    0  501  502 -0.0000000000e+00 -0.0000000000e+00 -2.6194536230e+02 2.6194536230e+02 0.0000000000e+00 0.0000e+00 1.0000e+00
       25  2    1    2    0    0 +0.0000000000e+00 +0.0000000000e+00 -2.4703290129e+02 2.7685782330e+02 1.2500000000e+02 0.0000e+00 0.0000e+00
      -15  1    3    3    0    0 +2.4226702541e+01 +4.6722926651e+01 -1.1521507695e+02 1.2667926695e+02 1.7770000000e+00 0.0000e+00 -1.0000e+00
       15  1    3    3    0    0 +1.5473451394e+00 -4.4316744244e+01 -9.8087349455e+01 1.0765989945e+02 1.7770000000e+00 0.0000e+00 -1.0000e+00
       22  1    3    3    0    0 -2.5774047680e+01 -2.4061824061e+00 -3.3730474866e+01 4.2518656874e+01 0.0000000000e+00 0.0000e+00 -1.0000e+00
<mgrwt>
<rscale>  2 0.12500000E+03</rscale>
<asrwt>0</asrwt>
<pdfrwt beam="1">  1       21 0.21930092E-02 0.12500000E+03</pdfrwt>
<pdfrwt beam="2">  1       21 0.38521373E-01 0.12500000E+03</pdfrwt>
<totfact> 0.66667623E+06</totfact>
</mgrwt>
</event>
<event>
 6      0 +9.8758382e+01 1.25000000e+02 7.54677100e-03 1.12640300e-01
       21 -1    0    0  502  501 +0.0000000000e+00 +0.0000000000e+00 +1.4776315873e+01 1.4776315873e+01 0.0000000000e+00 0.0000e+00 1.0000e+00
       21 -1    0    0  501  502 -0.0000000000e+00 -0.0000000000e+00 -2.6435885870e+02 2.6435885870e+02 0.0000000000e+00 0.0000e+00 1.0000e+00
       25  2    1    2    0    0 +0.0000000000e+00 +0.0000000000e+00 -2.4958254283e+02 2.7913517457e+02 1.2500000000e+02 0.0000e+00 0.0000e+00
      -15  1    3    3    0    0 -3.1607633874e+01 -4.1671241426e+01 -9.0271908998e+01 1.0434419085e+02 1.7770000000e+00 0.0000e+00 -1.0000e+00
       15  1    3    3    0    0 +2.2384767387e+01 -5.7125027885e+00 -4.2654069557e+01 4.8541094733e+01 1.7770000000e+00 0.0000e+00 -1.0000e+00
       22  1    3    3    0    0 +9.2228664870e+00 +4.7383744214e+01 -1.1665656430e+02 1.2624988902e+02 0.0000000000e+00 0.0000e+00 -1.0000e+00
<mgrwt>
<rscale>  2 0.12500000E+03</rscale>
<asrwt>0</asrwt>
<pdfrwt beam="1">  1       21 0.21729876E-02 0.12500000E+03</pdfrwt>
<pdfrwt beam="2">  1       21 0.38876304E-01 0.12500000E+03</pdfrwt>
<totfact> 0.66394672E+06</totfact>
</mgrwt>
</event>
<event>
 6      0 +9.8758382e+01 1.25000000e+02 7.54677100e-03 1.12640300e-01
       21 -1    0    0  502  501 +0.0000000000e+00 +0.0000000000e+00 +8.0007989322e+00 8.0007989322e+00 0.0000000000e+00 0.0000e+00 1.0000e+00
       21 -1    0    0  501  502 -0.0000000000e+00 -0.0000000000e+00 -4.8823249192e+02 4.8823249192e+02 0.0000000000e+00 0.0000e+00 1.0000e+00
       25  2    1    2    0    0 +0.0000000000e+00 +0.0000000000e+00 -4.8023169298e+02 4.9623329085e+02 1.2500000000e+02 0.0000e+00 0.0000e+00
      -15  1    3    3    0    0 -4.3153127076e+01 +1.5016964143e+01 -1.7465984128e+02 1.8054616992e+02 1.7770000000e+00 0.0000e+00 -1.0000e+00
       15  1    3    3    0    0 -3.7302921867e+00 +1.2542771020e+01 -1.5559709626e+02 1.5615649291e+02 1.7770000000e+00 0.0000e+00 -1.0000e+00
       22  1    3    3    0    0 +4.6883419262e+01 -2.7559735163e+01 -1.4997475536e+02 1.5953062793e+02 0.0000000000e+00 0.0000e+00 -1.0000e+00
<mgrwt>
<rscale>  2 0.12500000E+03</rscale>
<asrwt>0</asrwt>
<pdfrwt beam="1">  1       21 0.11765877E-02 0.12500000E+03</pdfrwt>
<pdfrwt beam="2">  1       21 0.71798922E-01 0.12500000E+03</pdfrwt>
<totfact> 0.45607415E+06</totfact>
</mgrwt>
</event>
<event>
 6      0 +9.8758382e+01 1.25000000e+02 7.54677100e-03 1.12640300e-01
       21 -1    0    0  502  501 +0.0000000000e+00 +0.0000000000e+00 +3.5056441742e+02 3.5056441742e+02 0.0000000000e+00 0.0000e+00 -1.0000e+00
       21 -1    0    0  501  502 -0.0000000000e+00 -0.0000000000e+00 -1.1142745259e+01 1.1142745259e+01 0.0000000000e+00 0.0000e+00 -1.0000e+00
       25  2    1    2    0    0 +0.0000000000e+00 +0.0000000000e+00 +3.3942167216e+02 3.6170716267e+02 1.2500000000e+02 0.0000e+00 0.0000e+00
      -15  1    3    3    0    0 -9.5371629406e-01 -1.5572794164e+01 +2.5810320302e+02 2.5858043744e+02 1.7770000000e+00 0.0000e+00 -1.0000e+00
       15  1    3    3    0    0 -2.9861805796e+01 +8.3056289775e+00 +4.7993024290e+01 5.7159417663e+01 1.7770000000e+00 0.0000e+00 -1.0000e+00
       22  1    3    3    0    0 +3.0815522091e+01 +7.2671651865e+00 +3.3325444911e+01 4.5967307622e+01 0.0000000000e+00 0.0000e+00 -1.0000e+00
<mgrwt>
<rscale>  2 0.12500000E+03</rscale>
<asrwt>0</asrwt>
<pdfrwt beam="1">  1       21 0.51553584E-01 0.12500000E+03</pdfrwt>
<pdfrwt beam="2">  1       21 0.16386392E-02 0.12500000E+03</pdfrwt>
<totfact> 0.57343581E+06</totfact>
</mgrwt>
</event>
<event>
 6      0 +9.8758382e+01 1.25000000e+02 7.54677100e-03 1.12640300e-01
       21 -1    0    0  502  501 +0.0000000000e+00 +0.0000000000e+00 +6.5590135160e+01 6.5590135160e+01 0.0000000000e+00 0.0000e+00 -1.0000e+00
       21 -1    0    0  501  502 -0.0000000000e+00 -0.0000000000e+00 -5.9555449771e+01 5.9555449771e+01 0.0000000000e+00 0.0000e+00 -1.0000e+00
       25  2    1    2    0    0 +0.0000000000e+00 +0.0000000000e+00 +6.0346853892e+00 1.2514558493e+02 1.2500000000e+02 0.0000e+00 0.0000e+00
      -15  1    3    3    0    0 -4.0526877578e+01 +4.3601674746e+01 +1.7469807844e+01 6.2063562273e+01 1.7770000000e+00 0.0000e+00 -1.0000e+00
       15  1    3    3    0    0 +5.0357603245e+00 -1.1717508007e+01 +3.0280348102e+00 1.3228212265e+01 1.7770000000e+00 0.0000e+00 1.0000e+00
       22  1    3    3    0    0 +3.5491117253e+01 -3.1884166739e+01 -1.4463157265e+01 4.9853810392e+01 0.0000000000e+00 0.0000e+00 -1.0000e+00
<mgrwt>
<rscale>  2 0.12500000E+03</rscale>
<asrwt>0</asrwt>
<pdfrwt beam="1">  1       21 0.96456082E-02 0.12500000E+03</pdfrwt>
<pdfrwt beam="2">  1       21 0.87581543E-02 0.12500000E+03</pdfrwt>
<totfact> 0.88971685E+06</totfact>
</mgrwt>
</event>
<event>
 6      0 +9.8758382e+01 1.25000000e+02 7.54677100e-03 1.12640300e-01
       21 -1    0    0  502  501 +0.0000000000e+00 +0.0000000000e+00 +7.0677412878e+01 7.0677412878e+01 0.0000000000e+00 0.0000e+00 -1.0000e+00
       21 -1    0    0  501  502 -0.0000000000e+00 -0.0000000000e+00 -5.5268717981e+01 5.5268717981e+01 0.0000000000e+00 0.0000e+00 -1.0000e+00
       25  2    1    2    0    0 +0.0000000000e+00 +0.0000000000e+00 +1.5408694897e+01 1.2594613086e+02 1.2500000000e+02 0.0000e+00 0.0000e+00
      -15  1    3    3    0    0 +3.3454746458e+00 -2.5238222318e+01 +3.9482529127e+00 2.5824532840e+01 1.7770000000e+00 0.0000e+00 -1.0000e+00
       15  1    3    3    0    0 +1.3712646240e+01 -5.3295092206e+00 +4.7573029903e+01 4.9827615220e+01 1.7770000000e+00 0.0000e+00 -1.0000e+00
       22  1    3    3    0    0 -1.7058120886e+01 +3.0567731538e+01 -3.6112587919e+01 5.0293982798e+01 0.0000000000e+00 0.0000e+00 -1.0000e+00
<mgrwt>
<rscale>  2 0.12500000E+03</rscale>
<asrwt>0</asrwt>
<pdfrwt beam="1">  1       21 0.10393737E-01 0.12500000E+03</pdfrwt>
<pdfrwt beam="2">  1       21 0.81277527E-02 0.12500000E+03</pdfrwt>
<totfact> 0.88821518E+06</totfact>
</mgrwt>
</event>
<event>
 6      0 +9.8758382e+01 1.25000000e+02 7.54677100e-03 1.12640300e-01
       21 -1    0    0  502  501 +0.0000000000e+00 +0.0000000000e+00 +5.9791303103e+01 5.9791303103e+01 0.0000000000e+00 0.0000e+00 -1.0000e+00
       21 -1    0    0  501  502 -0.0000000000e+00 -0.0000000000e+00 -6.5331407701e+01 6.5331407701e+01 0.0000000000e+00 0.0000e+00 -1.0000e+00
       25  2    1    2    0    0 +0.0000000000e+00 +0.0000000000e+00 -5.5401045975e+00 1.2512271080e+02 1.2500000000e+02 0.0000e+00 0.0000e+00
      -15  1    3    3    0    0 -4.3162992799e+01 +1.9860556057e+01 +2.9197387531e+01 5.5795437106e+01 1.7770000000e+00 0.0000e+00 -1.0000e+00
       15  1    3    3    0    0 -4.1013635623e+00 -1.0927229598e+01 -8.3818551514e+00 1.4478907228e+01 1.7770000000e+00 0.0000e+00 -1.0000e+00
       22  1    3    3    0    0 +4.7264356362e+01 -8.9333264594e+00 -2.6355636977e+01 5.4848366470e+01 0.0000000000e+00 0.0000e+00 -1.0000e+00
<mgrwt>
<rscale>  2 0.12500000E+03</rscale>
<asrwt>0</asrwt>
<pdfrwt beam="1">  1       21 0.87928387E-02 0.12500000E+03</pdfrwt>
<pdfrwt beam="2">  1       21 0.96075599E-02 0.12500000E+03</pdfrwt>
<totfact> 0.88976360E+06</totfact>
</mgrwt>
</event>
<event>
 6      0 +9.8758382e+01 1.25000000e+02 7.54677100e-03 1.12640300e-01
       21 -1    0    0  502  501 +0.0000000000e+00 +0.0000000000e+00 +7.3236052039e+01 7.3236052039e+01 0.0000000000e+00 0.0000e+00 -1.0000e+00
       21 -1    0    0  501  502 -0.0000000000e+00 -0.0000000000e+00 -5.3337801414e+01 5.3337801414e+01 0.0000000000e+00 0.0000e+00 -1.0000e+00
       25  2    1    2    0    0 +0.0000000000e+00 +0.0000000000e+00 +1.9898250626e+01 1.2657385345e+02 1.2500000000e+02 0.0000e+00 0.0000e+00
      -15  1    3    3    0    0 +2.5340145838e+00 -2.0873233312e+01 +2.4580869805e+01 3.2395832883e+01 1.7770000000e+00 0.0000e+00 -1.0000e+00
       15  1    3    3    0    0 +2.4192849939e+01 +1.6968221056e+01 +3.5210028298e+01 4.6001286241e+01 1.7770000000e+00 0.0000e+00 -1.0000e+00
       22  1    3    3    0    0 -2.6726864523e+01 +3.9050122557e+00 -3.9892647478e+01 4.8176734329e+01 0.0000000000e+00 0.0000e+00 -1.0000e+00
<mgrwt>
<rscale>  2 0.12500000E+03</rscale>
<asrwt>0</asrwt>
<pdfrwt beam="1">  1       21 0.10770008E-01 0.12500000E+03</pdfrwt>
<pdfrwt beam="2">  1       21 0.78437943E-02 0.12500000E+03</pdfrwt>
<totfact> 0.88708944E+06</totfact>
</mgrwt>
</event>
<event>
 6      0 +9.8758382e+01 1.25000000e+02 7.54677100e-03 1.12640300e-01
       21 -1    0    0  502  501 +0.0000000000e+00 +0.0000000000e+00 +4.6374968656e+01 4.6374968656e+01 0.0000000000e+00 0.0000e+00 1.0000e+00
       21 -1    0    0  501  502 -0.0000000000e+00 -0.0000000000e+00 -8.4231862861e+01 8.4231862861e+01 0.0000000000e+00 0.0000e+00 1.0000e+00
       25  2    1    2    0    0 +0.0000000000e+00 +0.0000000000e+00 -3.7856894205e+01 1.3060683152e+02 1.2500000000e+02 0.0000e+00 0.0000e+00
      -15  1    3    3    0    0 -1.7495666476e+01 -1.4402395190e+01 -7.4505612357e+00 2.3920617140e+01 1.7770000000e+00 0.0000e+00 -1.0000e+00
       15  1    3    3    0    0 -3.5550480857e+01 -1.0649823172e+01 -3.0425069397e+01 4.8021849189e+01 1.7770000000e+00 0.0000e+00 -1.0000e+00
       22  1    3    3    0    0 +5.3046147333e+01 +2.5052218362e+01 +1.8736428577e-02 5.8664365187e+01 0.0000000000e+00 0.0000e+00 -1.0000e+00
<mgrwt>
<rscale>  2 0.12500000E+03</rscale>
<asrwt>0</asrwt>
<pdfrwt beam="1">  1       21 0.68198484E-02 0.12500000E+03</pdfrwt>
<pdfrwt beam="2">  1       21 0.12387039E-01 0.12500000E+03</pdfrwt>
<totfact> 0.87987339E+06</totfact>
</mgrwt>
</event>
<event>
 6      0 +9.8758382e+01 1.25000000e+02 7.54677100e-03 1.12640300e-01
       21 -1    0    0  502  501 +0.0000000000e+00 +0.0000000000e+00 +1.7664484161e+01 1.7664484161e+01 0.0000000000e+00 0.0000e+00 -1.0000e+00
       21 -1    0    0  501  502 -0.0000000000e+00 -0.0000000000e+00 -2.2113580926e+02 2.2113580926e+02 0.0000000000e+00 0.0000e+00 -1.0000e+00
       25  2    1    2    0    0 +0.0000000000e+00 +0.0000000000e+00 -2.0347132510e+02 2.3880029342e+02 1.2500000000e+02 0.0000e+00 0.0000e+00
      -15  1    3    3    0    0 -1.9401873495e+01 +1.6159836943e+01 -1.7469250954e+01 3.0755576454e+01 1.7770000000e+00 0.0000e+00 -1.0000e+00
       15  1    3    3    0    0 -1.8046687573e+01 +2.3010347331e+00 -1.5491786410e+02 1.5599256405e+02 1.7770000000e+00 0.0000e+00 -1.0000e+00
       22  1    3    3    0    0 +3.7448561067e+01 -1.8460871677e+01 -3.1084210050e+01 5.2052152919e+01 0.0000000000e+00 0.0000e+00 -1.0000e+00
<mgrwt>
<rscale>  2 0.12500000E+03</rscale>
<asrwt>0</asrwt>
<pdfrwt beam="1">  1       21 0.25977185E-02 0.12500000E+03</pdfrwt>
<pdfrwt beam="2">  1       21 0.32519969E-01 0.12500000E+03</pdfrwt>
<totfact> 0.71465126E+06</totfact>
</mgrwt>
</event>
<event>
 6      0 +9.8758382e+01 1.25000000e+02 7.54677100e-03 1.12640300e-01
       21 -1    0    0  502  501 +0.0000000000e+00 +0.0000000000e+00 +6.7320171375e+02 6.7320171375e+02 0.0000000000e+00 0.0000e+00 -1.0000e+00
       21 -1    0    0  501  502 -0.0000000000e+00 -0.0000000000e+00 -5.8024956268e+00 5.8024956268e+00 0.0000000000e+00 0.0000e+00 -1.0000e+00
       25  2    1    2    0    0 +0.0000000000e+00 +0.0000000000e+00 +6.6739921813e+02 6.7900420938e+02 1.2500000000e+02 0.0000e+00 0.0000e+00
      -15  1    3    3    0    0 -1.5592745612e+01 +1.2516728072e+01 +1.3521619023e+02 1.3669812737e+02 1.7770000000e+00 0.0000e+00 -1.0000e+00
       15  1    3    3    0    0 -1.9260581497e+01 -4.6548166425e+01 +1.8586575511e+02 1.9257969376e+02 1.7770000000e+00 0.0000e+00 -1.0000e+00
       22  1    3    3    0    0 +3.4853327109e+01 +3.4031438353e+01 +3.4631727289e+02 3.4972638835e+02 0.0000000000e+00 0.0000e+00 -1.0000e+00
<mgrwt>
<rscale>  2 0.12500000E+03</rscale>
<asrwt>0</asrwt>
<pdfrwt beam="1">  1       21 0.99000198E-01 0.12500000E+03</pdfrwt>
<pdfrwt beam="2">  1       21 0.85330865E-03 0.12500000E+03</pdfrwt>
<totfact> 0.33999905E+06</totfact>
</mgrwt>
</event>
<event>
 6      0 +9.8758382e+01 1.25000000e+02 7.54677100e-03 1.12640300e-01
       21 -1    0    0  502  501 +0.0000000000e+00 +0.0000000000e+00 +5.0413484563e+02 5.0413484563e+02 0.0000000000e+00 0.0000e+00 1.0000e+00
       21 -1    0    0  501  502 -0.0000000000e+00 -0.0000000000e+00 -7.7484229345e+00 7.7484229345e+00 0.0000000000e+00 0.0000e+00 1.0000e+00
       25  2    1    2    0    0 +0.0000000000e+00 +0.0000000000e+00 +4.9638642270e+02 5.1188326857e+02 1.2500000000e+02 0.0000e+00 0.0000e+00
      -15  1    3    3    0    0 +1.6703810918e+00 +2.2780171542e+00 +5.8545220779e-01 3.3882175889e+00 1.7770000000e+00 0.0000e+00 -1.0000e+00
       15  1    3    3    0    0 -3.2691246143e+01 +4.0127621222e+01 +3.4358927789e+02 3.4747042056e+02 1.7770000000e+00 0.0000e+00 -1.0000e+00
       22  1    3    3    0    0 +3.1020865051e+01 -4.2405638377e+01 +1.5221169259e+02 1.6102463040e+02 0.0000000000e+00 0.0000e+00 -1.0000e+00
<mgrwt>
<rscale>  2 0.12500000E+03</rscale>
<asrwt>0</asrwt>
<pdfrwt beam="1">  1       21 0.74137455E-01 0.12500000E+03</pdfrwt>
<pdfrwt beam="2">  1       21 0.11394743E-02 0.12500000E+03</pdfrwt>
<totfact> 0.44453873E+06</totfact>
</mgrwt>
</event>
<event>
 6      0 +9.8758382e+01 1.25000000e+02 7.54677100e-03 1.12640300e-01
       21 -1    0    0  502  501 +0.0000000000e+00 +0.0000000000e+00 +1.8718061924e+02 1.8718061924e+02 0.0000000000e+00 0.0000e+00 -1.0000e+00
       21 -1    0    0  501  502 -0.0000000000e+00 -0.0000000000e+00 -2.0868880634e+01 2.0868880634e+01 0.0000000000e+00 0.0000e+00 -1.0000e+00
       25  2    1    2    0    0 +0.0000000000e+00 +0.0000000000e+00 +1.6631173861e+02 2.0804949987e+02 1.2500000000e+02 0.0000e+00 0.0000e+00
      -15  1    3    3    0    0 -2.9454539092e+01 -2.8641518941e-01 +3.5412491715e+01 4.6096140893e+01 1.7770000000e+00 0.0000e+00 -1.0000e+00
       15  1    3    3    0    0 -2.1516418155e+00 +4.1912261159e+01 +7.0645660005e+01 8.2190231807e+01 1.7770000000e+00 0.0000e+00 -1.0000e+00
       22  1    3    3    0    0 +3.1606180907e+01 -4.1625845969e+01 +6.0253586908e+01 7.9763127193e+01 0.0000000000e+00 0.0000e+00 -1.0000e+00
<mgrwt>
<rscale>  2 0.12500000E+03</rscale>
<asrwt>0</asrwt>
<pdfrwt beam="1">  1       21 0.27526561E-01 0.12500000E+03</pdfrwt>
<pdfrwt beam="2">  1       21 0.30689531E-02 0.12500000E+03</pdfrwt>
<totfact> 0.75660455E+06</totfact>
</mgrwt>
</event>
<event>
 6      0 +9.8758382e+01 1.25000000e+02 7.54677100e-03 1.12640300e-01
       21 -1    0    0  502  501 +0.0000000000e+00 +0.0000000000e+00 +2.2815197380e+01 2.2815197380e+01 0.0000000000e+00 0.0000e+00 1.0000e+00
       21 -1    0    0  501  502 -0.0000000000e+00 -0.0000000000e+00 -1.7121263231e+02 1.7121263231e+02 0.0000000000e+00 0.0000e+00 1.0000e+00
       25  2    1    2    0    0 +0.0000000000e+00 +0.0000000000e+00 -1.4839743493e+02 1.9402782969e+02 1.2500000000e+02 0.0000e+00 0.0000e+00
      -15  1    3    3    0    0 -6.4870209672e+00 +1.2257908300e+00 -3.9718521210e+01 4.0302638379e+01 1.7770000000e+00 0.0000e+00 -1.0000e+00
       15  1    3    3    0    0 +2.2113577218e+01 +1.0940034594e+01 -1.2539380838e+02 1.2781024828e+02 1.7770000000e+00 0.0000e+00 -1.0000e+00
       22  1    3    3    0    0 -1.5626556251e+01 -1.2165825424e+01 +1.6714894669e+01 2.5914943030e+01 0.0000000000e+00 0.0000e+00 -1.0000e+00
<mgrwt>
<rscale>  2 0.12500000E+03</rscale>
<asrwt>0</asrwt>
<pdfrwt beam="1">  1       21 0.33551762E-02 0.12500000E+03</pdfrwt>
<pdfrwt beam="2">  1       21 0.25178328E-01 0.12500000E+03</pdfrwt>
<totfact> 0.77698585E+06</totfact>
</mgrwt>
</event>
<event>
 6      0 +9.8758382e+01 1.25000000e+02 7.54677100e-03 1.12640300e-01
       21 -1    0    0  502  501 +0.0000000000e+00 +0.0000000000e+00 +4.0624221262e+02 4.0624221262e+02 0.0000000000e+00 0.0000e+00 1.0000e+00
       21 -1    0    0  501  502 -0.0000000000e+00 -0.0000000000e+00 -9.6155689357e+00 9.6155689357e+00 0.0000000000e+00 0.0000e+00 1.0000e+00
       25  2    1    2    0    0 +0.0000000000e+00 +0.0000000000e+00 +3.9662664368e+02 4.1585778155e+02 1.2500000000e+02 0.0000e+00 0.0000e+00
      -15  1    3    3    0    0 +4.2275481044e+01 -1.7906792808e+01 +1.8135812487e+02 1.8708767119e+02 1.7770000000e+00 0.0000e+00 -1.0000e+00
       15  1    3    3    0    0 -1.2357535991e+01 +1.6147852409e+01 +1.8518354230e+02 1.8630502919e+02 1.7770000000e+00 0.0000e+00 -1.0000e+00
       22  1    3    3    0    0 -2.9917945053e+01 +1.7589403988e+00 +3.0084976518e+01 4.2465081180e+01 0.0000000000e+00 0.0000e+00 -1.0000e+00
<mgrwt>
<rscale>  2 0.12500000E+03</rscale>
<asrwt>0</asrwt>
<pdfrwt beam="1">  1       21 0.59741490E-01 0.12500000E+03</pdfrwt>
<pdfrwt beam="2">  1       21 0.14140545E-02 0.12500000E+03</pdfrwt>
<totfact> 0.52216055E+06</totfact>
</mgrwt>
</event>
<event>
 6      0 +9.8758382e+01 1.25000000e+02 7.54677100e-03 1.12640300e-01
       21 -1    0    0  502  501 +0.0000000000e+00 +0.0000000000e+00 +9.3957731557e+00 9.3957731557e+00 0.0000000000e+00 0.0000e+00 -1.0000e+00
       21 -1    0    0  501  502 -0.0000000000e+00 -0.0000000000e+00 -4.1574545652e+02 4.1574545652e+02 0.0000000000e+00 0.0000e+00 -1.0000e+00
       25  2    1    2    0    0 +0.0000000000e+00 +0.0000000000e+00 -4.0634968337e+02 4.2514122968e+02 1.2500000000e+02 0.0000e+00 0.0000e+00
      -15  1    3    3    0    0 -1.2621679013e+00 +1.9682336319e+01 -3.9155711746e+01 4.3878410661e+01 1.7770000000e+00 0.0000e+00 -1.0000e+00
       15  1    3    3    0    0 -1.7203234496e+01 +3.0525140266e+01 -6.0486718203e+01 6.9925219151e+01 1.7770000000e+00 0.0000e+00 -1.0000e+00
       22  1    3    3    0    0 +1.8465402397e+01 -5.0207476586e+01 -3.0670725343e+02 3.1133759988e+02 0.0000000000e+00 0.0000e+00 -1.0000e+00
<mgrwt>
<rscale>  2 0.12500000E+03</rscale>
<asrwt>0</asrwt>
<pdfrwt beam="1">  1       21 0.13817315E-02 0.12500000E+03</pdfrwt>
<pdfrwt beam="2">  1       21 0.61139032E-01 0.12500000E+03</pdfrwt>
<totfact> 0.51395594E+06</totfact>
</mgrwt>
</event>
<event>
 6      0 +9.8758382e+01 1.25000000e+02 7.54677100e-03 1.12640300e-01
       21 -1    0    0  502  501 +0.0000000000e+00 +0.0000000000e+00 +3.5622662537e+01 3.5622662537e+01 0.0000000000e+00 0.0000e+00 -1.0000e+00
       21 -1    0    0  501  502 -0.0000000000e+00 -0.0000000000e+00 -1.0965631769e+02 1.0965631769e+02 0.0000000000e+00 0.0000e+00 -1.0000e+00
       25  2    1    2    0    0 +0.0000000000e+00 +0.0000000000e+00 -7.4033655148e+01 1.4527898022e+02 1.2500000000e+02 0.0000e+00 0.0000e+00
      -15  1    3    3    0    0 -1.5545512641e+01 -2.0972005216e+01 +1.9221630596e+01 3.2467164610e+01 1.7770000000e+00 0.0000e+00 -1.0000e+00
       15  1    3    3    0    0 -8.5999493320e+00 -4.6599695322e+00 +2.9455679895e+00 1.0368632713e+01 1.7770000000e+00 0.0000e+00 -1.0000e+00
       22  1    3    3    0    0 +2.4145461973e+01 +2.5631974748e+01 -9.6200853735e+01 1.0244318290e+02 0.0000000000e+00 0.0000e+00 -1.0000e+00
<mgrwt>
<rscale>  2 0.12500000E+03</rscale>
<asrwt>0</asrwt>
<pdfrwt beam="1">  1       21 0.52386268E-02 0.12500000E+03</pdfrwt>
<pdfrwt beam="2">  1       21 0.16125929E-01 0.12500000E+03</pdfrwt>
<totfact> 0.85426316E+06</totfact>
</mgrwt>
</event>
<event>
 6      0 +9.8758382e+01 1.25000000e+02 7.54677100e-03 1.12640300e-01
       21 -1    0    0  502  501 +0.0000000000e+00 +0.0000000000e+00 +5.9079620472e+00 5.9079620472e+00 0.0000000000e+00 0.0000e+00 1.0000e+00
       21 -1    0    0  501  502 -0.0000000000e+00 -0.0000000000e+00 -6.6118400369e+02 6.6118400369e+02 0.0000000000e+00 0.0000e+00 1.0000e+00
       25  2    1    2    0    0 +0.0000000000e+00 +0.0000000000e+00 -6.5527604164e+02 6.6709196574e+02 1.2500000000e+02 0.0000e+00 0.0000e+00
      -15  1    3    3    0    0 -2.0539611163e+01 +4.8941913375e+01 -5.0265015388e+02 5.0544784245e+02 1.7770000000e+00 0.0000e+00 -1.0000e+00
       15  1    3    3    0    0 +2.0553280862e+01 -4.8986041879e+01 -1.5217254339e+02 1.6118843117e+02 1.7770000000e+00 0.0000e+00 -1.0000e+00
       22  1    3    3    0    0 -1.3669698481e-02 +4.4128503993e-02 -4.5334421162e-01 4.5569195706e-01 0.0000000000e+00 0.0000e+00 1.0000e+00
<mgrwt>
<rscale>  2 0.12500000E+03</rscale>
<asrwt>0</asrwt>
<pdfrwt beam="1">  1       21 0.86881815E-03 0.12500000E+03</pdfrwt>
<pdfrwt beam="2">  1       21 0.97232919E-01 0.12500000E+03</pdfrwt>
<totfact> 0.34630097E+06</totfact>
</mgrwt>
</event>
<event>
 6      0 +9.8758382e+01 1.25000000e+02 7.54677100e-03 1.12640300e-01
       21 -1    0    0  502  501 +0.0000000000e+00 +0.0000000000e+00 +1.0880568132e+02 1.0880568132e+02 0.0000000000e+00 0.0000e+00 1.0000e+00
       21 -1    0    0  501  502 -0.0000000000e+00 -0.0000000000e+00 -3.5901158402e+01 3.5901158402e+01 0.0000000000e+00 0.0000e+00 1.0000e+00
       25  2    1    2    0    0 +0.0000000000e+00 +0.0000000000e+00 +7.2904522913e+01 1.4470683972e+02 1.2500000000e+02 0.0000e+00 0.0000e+00
      -15  1    3    3    0    0 -1.0373725332e+01 +4.9142206121e+01 +2.9869971076e+01 5.8463180728e+01 1.7770000000e+00 0.0000e+00 -1.0000e+00
       15  1    3    3    0    0 -1.5729579767e+01 +1.5722287496e+00 +2.1188956475e+00 1.6048022640e+01 1.7770000000e+00 0.0000e+00 -1.0000e+00
       22  1    3    3    0    0 +2.6103305099e+01 -5.0714434870e+01 +4.0915656188e+01 7.0195636350e+01 0.0000000000e+00 0.0000e+00 -1.0000e+00
<mgrwt>
<rscale>  2 0.12500000E+03</rscale>
<asrwt>0</asrwt>
<pdfrwt beam="1">  1       21 0.16000835E-01 0.12500000E+03</pdfrwt>
<pdfrwt beam="2">  1       21 0.52795822E-02 0.12500000E+03</pdfrwt>
<totfact> 0.85524716E+06</totfact>
</mgrwt>
</event>
<event>
 6      0 +9.8758382e+01 1.25000000e+02 7.54677100e-03 1.12640300e-01
       21 -1    0    0  502  501 +0.0000000000e+00 +0.0000000000e+00 +7.3812783527e+02 7.3812783527e+02 0.0000000000e+00 0.0000e+00 1.0000e+00
       21 -1    0    0  501  502 -0.0000000000e+00 -0.0000000000e+00 -5.2921049896e+00 5.2921049896e+00 0.0000000000e+00 0.0000e+00 1.0000e+00
       25  2    1    2    0    0 +0.0000000000e+00 +0.0000000000e+00 +7.3283573028e+02 7.4341994026e+02 1.2500000000e+02 0.0000e+00 0.0000e+00
      -15  1    3    3    0    0 -4.3553328267e+01 +4.5726574253e+00 +3.8567414368e+02 3.8815654629e+02 1.7770000000e+00 0.0000e+00 -1.0000e+00
       15  1    3    3    0    0 -9.3700835414e+00 +1.2275404109e+01 +3.6441765361e+01 3.9618732983e+01 1.7770000000e+00 0.0000e+00 -1.0000e+00
       22  1    3    3    0    0 +5.2923411808e+01 -1.6848061534e+01 +3.1071982122e+02 3.1564466096e+02 0.0000000000e+00 0.0000e+00 -1.0000e+00
<mgrwt>
<rscale>  2 0.12500000E+03</rscale>
<asrwt>0</asrwt>
<pdfrwt beam="1">  1       21 0.10854814E+00 0.12500000E+03</pdfrwt>
<pdfrwt beam="2">  1       21 0.77825124E-03 0.12500000E+03</pdfrwt>
<totfact> 0.30799910E+06</totfact>
</mgrwt>
</event>
<event>
 6      0 +9.8758382e+01 1.25000000e+02 7.54677100e-03 1.12640300e-01
       21 -1    0    0  502  501 +0.0000000000e+00 +0.0000000000e+00 +1.0348387389e+03 1.0348387389e+03 0.0000000000e+00 0.0000e+00 1.0000e+00
       21 -1    0    0  501  502 -0.0000000000e+00 -0.0000000000e+00 -3.7747427240e+00 3.7747427240e+00 0.0000000000e+00 0.0000e+00 1.0000e+00
       25  2    1    2    0    0 +0.0000000000e+00 +0.0000000000e+00 +1.0310639961e+03 1.0386134816e+03 1.2500000000e+02 0.0000e+00 0.0000e+00
      -15  1    3    3    0    0 +4.5151780676e+01 -1.9144923700e+01 +5.6417821642e+02 5.6630859874e+02 1.7770000000e+00 0.0000e+00 -1.0000e+00
       15  1    3    3    0    0 -5.5698552747e+00 -1.4849839662e+01 +1.8056157163e+02 1.8126549562e+02 1.7770000000e+00 0.0000e+00 -1.0000e+00
       22  1    3    3    0    0 -3.9581925402e+01 +3.3994763362e+01 +2.8632420451e+02 2.9103938366e+02 0.0000000000e+00 0.0000e+00 -1.0000e+00
<mgrwt>
<rscale>  2 0.12500000E+03</rscale>
<asrwt>0</asrwt>
<pdfrwt beam="1">  1       21 0.15218197E+00 0.12500000E+03</pdfrwt>
<pdfrwt beam="2">  1       21 0.55510994E-03 0.12500000E+03</pdfrwt>
<totfact> 0.20056585E+06</totfact>
</mgrwt>
</event>
<event>
 6      0 +9.8758382e+01 1.25000000e+02 7.54677100e-03 1.12640300e-01
       21 -1    0    0  502  501 +0.0000000000e+00 +0.0000000000e+00 +7.5994833269e+00 7.5994833269e+00 0.0000000000e+00 0.0000e+00 1.0000e+00
       21 -1    0    0  501  502 -0.0000000000e+00 -0.0000000000e+00 -5.1401520761e+02 5.1401520761e+02 0.0000000000e+00 0.0000e+00 1.0000e+00
       25  2    1    2    0    0 +0.0000000000e+00 +0.0000000000e+00 -5.0641572428e+02 5.2161469094e+02 1.2500000000e+02 0.0000e+00 0.0000e+00
      -15  1    3    3    0    0 +3.7727881367e+01 +2.0947290207e+01 -1.7981440378e+02 1.8492852548e+02 1.7770000000e+00 0.0000e+00 -1.0000e+00
       15  1    3    3    0    0 -3.2820546613e+01 -4.5785711074e+01 -2.1725138243e+02 2.2444340158e+02 1.7770000000e+00 0.0000e+00 -1.0000e+00
       22  1    3    3    0    0 -4.9073347542e+00 +2.4838420867e+01 -1.0934993796e+02 1.1224276377e+02 0.0000000000e+00 0.0000e+00 -1.0000e+00
<mgrwt>
<rscale>  2 0.12500000E+03</rscale>
<asrwt>0</asrwt>
<pdfrwt beam="1">  1       21 0.11175711E-02 0.12500000E+03</pdfrwt>
<pdfrwt beam="2">  1       21 0.75590470E-01 0.12500000E+03</pdfrwt>
<totfact> 0.43756487E+06</totfact>
</mgrwt>
</event>
<event>
 6      0 +9.8758382e+01 1.25000000e+02 7.54677100e-03 1.12640300e-01
       21 -1    0    0  502  501 +0.0000000000e+00 +0.0000000000e+00 +2.5140745765e+02 2.5140745765e+02 0.0000000000e+00 0.0000e+00 1.0000e+00
       21 -1    0    0  501  502 -0.0000000000e+00 -0.0000000000e+00 -1.5537526358e+01 1.5537526358e+01 0.0000000000e+00 0.0000e+00 1.0000e+00
       25  2    1    2    0    0 +0.0000000000e+00 +0.0000000000e+00 +2.3586993130e+02 2.6694498401e+02 1.2500000000e+02 0.0000e+00 0.0000e+00
      -15  1    3    3    0    0 -1.5798926041e+01 -2.1462864350e+01 +5.0103695193e+01 5.6778504834e+01 1.7770000000e+00 0.0000e+00 -1.0000e+00
       15  1    3    3    0    0 -1.2995356575e+01 +1.4902521496e+01 -2.1273754789e+00 1.9966168758e+01 1.7770000000e+00 0.0000e+00 -1.0000e+00
       22  1    3    3    0    0 +2.8794282616e+01 +6.5603428539e+00 +1.8789361161e+02 1.9020031045e+02 0.0000000000e+00 0.0000e+00 -1.0000e+00
<mgrwt>
<rscale>  2 0.12500000E+03</rscale>
<asrwt>0</asrwt>
<pdfrwt beam="1">  1       21 0.36971683E-01 0.12500000E+03</pdfrwt>
<pdfrwt beam="2">  1       21 0.22849305E-02 0.12500000E+03</pdfrwt>
<totfact> 0.67872788E+06</totfact>
</mgrwt>
</event>
<event>
 6      0 +9.8758382e+01 1.25000000e+02 7.54677100e-03 1.12640300e-01
       21 -1    0    0  502  501 +0.0000000000e+00 +0.0000000000e+00 +3.8034386217e+02 3.8034386217e+02 0.0000000000e+00 0.0000e+00 1.0000e+00
       21 -1    0    0  501  502 -0.0000000000e+00 -0.0000000000e+00 -1.0270311654e+01 1.0270311654e+01 0.0000000000e+00 0.0000e+00 1.0000e+00
       25  2    1    2    0    0 +0.0000000000e+00 +0.0000000000e+00 +3.7007355052e+02 3.9061417382e+02 1.2500000000e+02 0.0000e+00 0.0000e+00
      -15  1    3    3    0    0 +5.0602574125e-01 +3.6466004145e+01 +7.7452173014e+01 8.5627229045e+01 1.7770000000e+00 0.0000e+00 -1.0000e+00
       15  1    3    3    0    0 -2.0921736304e+01 +1.5342251966e+01 +1.4286530029e+02 1.4521279386e+02 1.7770000000e+00 0.0000e+00 -1.0000e+00
       22  1    3    3    0    0 +2.0415710563e+01 -5.1808256111e+01 +1.4975607728e+02 1.5977415098e+02 0.0000000000e+00 0.0000e+00 -1.0000e+00
<mgrwt>
<rscale>  2 0.12500000E+03</rscale>
<asrwt>0</asrwt>
<pdfrwt beam="1">  1       21 0.55932912E-01 0.12500000E+03</pdfrwt>
<pdfrwt beam="2">  1       21 0.15103402E-02 0.12500000E+03</pdfrwt>
<totfact> 0.54531883E+06</totfact>
</mgrwt>
</event>
<event>
 6      0 +9.8758382e+01 1.25000000e+02 7.54677100e-03 1.12640300e-01
       21 -1    0    0  502  501 +0.0000000000e+00 +0.0000000000e+00 +3.9373553254e+01 3.9373553254e+01 0.0000000000e+00 0.0000e+00 1.0000e+00
       21 -1    0    0  501  502 -0.0000000000e+00 -0.0000000000e+00 -9.9209994454e+01 9.9209994454e+01 0.0000000000e+00 0.0000e+00 1.0000e+00
       25  2    1    2    0    0 +0.0000000000e+00 +0.0000000000e+00 -5.9836441200e+01 1.3858354771e+02 1.2500000000e+02 0.0000e+00 0.0000e+00
      -15  1    3    3    0    0 -3.0164092706e+00 +4.1574132163e+01 -5.2548282647e+01 6.7096847378e+01 1.7770000000e+00 0.0000e+00 -1.0000e+00
       15  1    3    3    0    0 -2.2919502460e+01 -3.1637930215e+00 +4.5614868940e+00 2.3649060678e+01 1.7770000000e+00 0.0000e+00 -1.0000e+00
       22  1    3    3    0    0 +2.5935911731e+01 -3.8410339141e+01 -1.1849645446e+01 4.7837639652e+01 0.0000000000e+00 0.0000e+00 -1.0000e+00
<mgrwt>
<rscale>  2 0.12500000E+03</rscale>
<asrwt>0</asrwt>
<pdfrwt beam="1">  1       21 0.57902284E-02 0.12500000E+03</pdfrwt>
<pdfrwt beam="2">  1       21 0.14589705E-01 0.12500000E+03</pdfrwt>
<totfact> 0.86584810E+06</totfact>
</mgrwt>
</event>
<event>
 6      0 +9.8758382e+01 1.25000000e+02 7.54677100e-03 1.12640300e-01
       21 -1    0    0  502  501 +0.0000000000e+00 +0.0000000000e+00 +2.2630091258e+01 2.2630091258e+01 0.0000000000e+00 0.0000e+00 -1.0000e+00
       21 -1    0    0  501  502 -0.0000000000e+00 -0.0000000000e+00 -1.7261309093e+02 1.7261309093e+02 0.0000000000e+00 0.0000e+00 -1.0000e+00
       25  2    1    2    0    0 +0.0000000000e+00 +0.0000000000e+00 -1.4998299967e+02 1.9524318219e+02 1.2500000000e+02 0.0000e+00 0.0000e+00
      -15  1    3    3    0    0 -2.7853212888e+01 +4.3710550080e+01 -2.9946730641e+01 5.9886376260e+01 1.7770000000e+00 0.0000e+00 -1.0000e+00
       15  1    3    3    0    0 -1.4391590499e+00 -2.2255521776e+01 -7.0320347104e+01 7.3793552389e+01 1.7770000000e+00 0.0000e+00 -1.0000e+00
       22  1    3    3    0    0 +2.9292371938e+01 -2.1455028303e+01 -4.9715921917e+01 6.1563253531e+01 0.0000000000e+00 0.0000e+00 -1.0000e+00
<mgrwt>
<rscale>  2 0.12500000E+03</rscale>
<asrwt>0</asrwt>
<pdfrwt beam="1">  1       21 0.33279546E-02 0.12500000E+03</pdfrwt>
<pdfrwt beam="2">  1       21 0.25384278E-01 0.12500000E+03</pdfrwt>
<totfact> 0.77518601E+06</totfact>
</mgrwt>
</event>
<event>
 6      0 +9.8758382e+01 1.25000000e+02 7.54677100e-03 1.12640300e-01
       21 -1    0    0  502  501 +0.0000000000e+00 +0.0000000000e+00 +2.3268654458e+01 2.3268654458e+01 0.0000000000e+00 0.0000e+00 -1.0000e+00
       21 -1    0    0  501  502 -0.0000000000e+00 -0.0000000000e+00 -1.6787605863e+02 1.6787605863e+02 0.0000000000e+00 0.0000e+00 -1.0000e+00
       25  2    1    2    0    0 +0.0000000000e+00 +0.0000000000e+00 -1.4460740417e+02 1.9114471309e+02 1.2500000000e+02 0.0000e+00 0.0000e+00
      -15  1    3    3    0    0 +1.5408571748e+01 +1.4420095003e+01 -1.0855218225e+02 1.1059881204e+02 1.7770000000e+00 0.0000e+00 -1.0000e+00
       15  1    3    3    0    0 -3.0885590418e+01 +1.5060381055e+01 -3.2027557957e+01 4.7006988530e+01 1.7770000000e+00 0.0000e+00 -1.0000e+00
       22  1    3    3    0    0 +1.5477018669e+01 -2.9480476058e+01 -4.0276639506e+00 3.3538912510e+01 0.0000000000e+00 0.0000e+00 -1.0000e+00
<mgrwt>
<rscale>  2 0.12500000E+03</rscale>
<asrwt>0</asrwt>
<pdfrwt beam="1">  1       21 0.34218609E-02 0.12500000E+03</pdfrwt>
<pdfrwt beam="2">  1       21 0.24687656E-01 0.12500000E+03</pdfrwt>
<totfact> 0.78126956E+06</totfact>
</mgrwt>
</event>
<event>
 6      0 +9.8758382e+01 1.25000000e+02 7.54677100e-03 1.12640300e-01
       21 -1    0    0  502  501 +0.0000000000e+00 +0.0000000000e+00 +1.0523464775e+02 1.0523464775e+02 0.0000000000e+00 0.0000e+00 -1.0000e+00
       21 -1    0    0  501  502 -0.0000000000e+00 -0.0000000000e+00 -3.7119428664e+01 3.7119428664e+01 0.0000000000e+00 0.0000e+00 -1.0000e+00
       25  2    1    2    0    0 +0.0000000000e+00 +0.0000000000e+00 +6.8115219081e+01 1.4235407641e+02 1.2500000000e+02 0.0000e+00 0.0000e+00
      -15  1    3    3    0    0 +1.9525830731e+01 +2.3384724286e+01 -6.0738497892e+00 3.1115153478e+01 1.7770000000e+00 0.0000e+00 -1.0000e+00
       15  1    3    3    0    0 -2.8349099147e+01 +4.7590901136e+00 -2.6609965666e+00 2.8923329560e+01 1.7770000000e+00 0.0000e+00 -1.0000e+00
       22  1    3    3    0    0 +8.8232684157e+00 -2.8143814400e+01 +7.6850065437e+01 8.2315593371e+01 0.0000000000e+00 0.0000e+00 -1.0000e+00
<mgrwt>
<rscale>  2 0.12500000E+03</rscale>
<asrwt>0</asrwt>
<pdfrwt beam="1">  1       21 0.15475683E-01 0.12500000E+03</pdfrwt>
<pdfrwt beam="2">  1       21 0.54587396E-02 0.12500000E+03</pdfrwt>
<totfact> 0.85932395E+06</totfact>
</mgrwt>
</event>
<event>
 6      0 +9.8758382e+01 1.25000000e+02 7.54677100e-03 1.12640300e-01
       21 -1    0    0  502  501 +0.0000000000e+00 +0.0000000000e+00 +2.6053021926e+02 2.6053021926e+02 0.0000000000e+00 0.0000e+00 -1.0000e+00
       21 -1    0    0  501  502 -0.0000000000e+00 -0.0000000000e+00 -1.4993462221e+01 1.4993462221e+01 0.0000000000e+00 0.0000e+00 -1.0000e+00
       25  2    1    2    0    0 +0.0000000000e+00 +0.0000000000e+00 +2.4553675704e+02 2.7552368149e+02 1.2500000000e+02 0.0000e+00 0.0000e+00
      -15  1    3    3    0    0 -1.7519255436e+01 -1.6825770371e+01 +7.0918485501e+01 7.4984132817e+01 1.7770000000e+00 0.0000e+00 -1.0000e+00
       15  1    3    3    0    0 -3.2106601117e+01 +7.3175372613e+00 +1.2663280295e+02 1.3085642781e+02 1.7770000000e+00 0.0000e+00 -1.0000e+00
       22  1    3    3    0    0 +4.9625856554e+01 +9.5082331095e+00 +4.7985468552e+01 6.9683120823e+01 0.0000000000e+00 0.0000e+00 -1.0000e+00
<mgrwt>
<rscale>  2 0.12500000E+03</rscale>
<asrwt>0</asrwt>
<pdfrwt beam="1">  1       21 0.38313265E-01 0.12500000E+03</pdfrwt>
<pdfrwt beam="2">  1       21 0.22049211E-02 0.12500000E+03</pdfrwt>
<totfact> 0.66828187E+06</totfact>
</mgrwt>
</event>
<event>
 6      0 +9.8758382e+01 1.25000000e+02 7.54677100e-03 1.12640300e-01
       21 -1    0    0  502  501 +0.0000000000e+00 +0.0000000000e+00 +2.5554643067e+01 2.5554643067e+01 0.0000000000e+00 0.0000e+00 1.0000e+00
       21 -1    0    0  501  502 -0.0000000000e+00 -0.0000000000e+00 -1.5285871886e+02 1.5285871886e+02 0.0000000000e+00 0.0000e+00 1.0000e+00
       25  2    1    2    0    0 +0.0000000000e+00 +0.0000000000e+00 -1.2730407579e+02 1.7841336192e+02 1.2500000000e+02 0.0000e+00 0.0000e+00
      -15  1    3    3    0    0 +5.9485998656e+00 +9.7986163610e-01 -3.7685378564e+01 3.8205908649e+01 1.7770000000e+00 0.0000e+00 -1.0000e+00
       15  1    3    3    0    0 -4.8228685763e+01 -1.2471183906e+01 -1.2306599726e+01 5.1343419093e+01 1.7770000000e+00 0.0000e+00 -1.0000e+00
       22  1    3    3    0    0 +4.2280085897e+01 +1.1491322270e+01 -7.7312097504e+01 8.8864034184e+01 0.0000000000e+00 0.0000e+00 -1.0000e+00
<mgrwt>
<rscale>  2 0.12500000E+03</rscale>
<asrwt>0</asrwt>
<pdfrwt beam="1">  1       21 0.37580358E-02 0.12500000E+03</pdfrwt>
<pdfrwt beam="2">  1       21 0.22479223E-01 0.12500000E+03</pdfrwt>
<totfact> 0.80049870E+06</totfact>
</mgrwt>
</event>
<event>
 6      0 +9.8758382e+01 1.25000000e+02 7.54677100e-03 1.12640300e-01
       21 -1    0    0  502  501 +0.0000000000e+00 +0.0000000000e+00 +5.5329629936e+00 5.5329629936e+00 0.0000000000e+00 0.0000e+00 1.0000e+00
       21 -1    0    0  501  502 -0.0000000000e+00 -0.0000000000e+00 -7.0599604670e+02 7.0599604670e+02 0.0000000000e+00 0.0000e+00 1.0000e+00
       25  2    1    2    0    0 +0.0000000000e+00 +0.0000000000e+00 -7.0046308371e+02 7.1152900969e+02 1.2500000000e+02 0.0000e+00 0.0000e+00
      -15  1    3    3    0    0 +2.3224940366e+01 -3.3681642388e+01 -3.4441496719e+02 3.4684099850e+02 1.7770000000e+00 0.0000e+00 -1.0000e+00
       15  1    3    3    0    0 -2.9257164832e+01 +4.4610594283e+01 -3.4092483421e+02 3.4507823334e+02 1.7770000000e+00 0.0000e+00 -1.0000e+00
       22  1    3    3    0    0 +6.0322244657e+00 -1.0928951894e+01 -1.5123282540e+01 1.9609778079e+01 0.0000000000e+00 0.0000e+00 -1.0000e+00
<mgrwt>
<rscale>  2 0.12500000E+03</rscale>
<asrwt>0</asrwt>
<pdfrwt beam="1">  1       21 0.81367137E-03 0.12500000E+03</pdfrwt>
<pdfrwt beam="2">  1       21 0.10382291E+00 0.12500000E+03</pdfrwt>
<totfact> 0.32333372E+06</totfact>
</mgrwt>
</event>
<event>
 6      0 +9.8758382e+01 1.25000000e+02 7.54677100e-03 1.12640300e-01
       21 -1    0    0  502  501 +0.0000000000e+00 +0.0000000000e+00 +4.8288633199e+00 4.8288633199e+00 0.0000000000e+00 0.0000e+00 -1.0000e+00
       21 -1    0    0  501  502 -0.0000000000e+00 -0.0000000000e+00 -8.0893778540e+02 8.0893778540e+02 0.0000000000e+00 0.0000e+00 -1.0000e+00
       25  2    1    2    0    0 +0.0000000000e+00 +0.0000000000e+00 -8.0410892208e+02 8.1376664872e+02 1.2500000000e+02 0.0000e+00 0.0000e+00
      -15  1    3    3    0    0 +4.4969138141e+01 -1.2098770846e+01 -2.7241036539e+02 2.7636781387e+02 1.7770000000e+00 0.0000e+00 -1.0000e+00
       15  1    3    3    0    0 +6.8829207593e+00 +7.6734526131e+00 -1.6221857850e+01 1.9301887843e+01 1.7770000000e+00 0.0000e+00 -1.0000e+00
       22  1    3    3    0    0 -5.1852058901e+01 +4.4253182331e+00 -5.1547669882e+02 5.1809694699e+02 0.0000000000e+00 0.0000e+00 -1.0000e+00
<mgrwt>
<rscale>  2 0.12500000E+03</rscale>
<asrwt>0</asrwt>
<pdfrwt beam="1">  1       21 0.71012781E-03 0.12500000E+03</pdfrwt>
<pdfrwt beam="2">  1       21 0.11896130E+00 0.12500000E+03</pdfrwt>
<totfact> 0.27714045E+06</totfact>
</mgrwt>
</event>
<event>
 6      0 +9.8758382e+01 1.25000000e+02 7.54677100e-03 1.12640300e-01
       21 -1    0    0  502  501 +0.0000000000e+00 +0.0000000000e+00 +1.1658346446e+01 1.1658346446e+01 0.0000000000e+00 0.0000e+00 -1.0000e+00
       21 -1    0    0  501  502 -0.0000000000e+00 -0.0000000000e+00 -3.3506038081e+02 3.3506038081e+02 0.0000000000e+00 0.0000e+00 -1.0000e+00
       25  2    1    2    0    0 +0.0000000000e+00 +0.0000000000e+00 -3.2340203437e+02 3.4671872726e+02 1.2500000000e+02 0.0000e+00 0.0000e+00
      -15  1    3    3    0    0 +1.2592003980e+01 -8.4253206586e+00 -4.7202592636e+00 1.5968192412e+01 1.7770000000e+00 0.0000e+00 -1.0000e+00
       15  1    3    3    0    0 +2.0776154708e+01 +4.5428079638e+00 -1.7218078030e+01 2.7420898028e+01 1.7770000000e+00 0.0000e+00 -1.0000e+00
       22  1    3    3    0    0 -3.3368158687e+01 +3.8825126948e+00 -3.0146369710e+02 3.0332963684e+02 0.0000000000e+00 0.0000e+00 -1.0000e+00
<mgrwt>
<rscale>  2 0.12500000E+03</rscale>
<asrwt>0</asrwt>
<pdfrwt beam="1">  1       21 0.17144626E-02 0.12500000E+03</pdfrwt>
<pdfrwt beam="2">  1       21 0.49273590E-01 0.12500000E+03</pdfrwt>
<totfact> 0.58866270E+06</totfact>
</mgrwt>
</event>
<event>
 6      0 +9.8758382e+01 1.25000000e+02 7.54677100e-03 1.12640300e-01
       21 -1    0    0  502  501 +0.0000000000e+00 +0.0000000000e+00 +1.0386151852e+02 1.0386151852e+02 0.0000000000e+00 0.0000e+00 -1.0000e+00
       21 -1    0    0  501  502 -0.0000000000e+00 -0.0000000000e+00 -3.7610176085e+01 3.7610176085e+01 0.0000000000e+00 0.0000e+00 -1.0000e+00
       25  2    1    2    0    0 +0.0000000000e+00 +0.0000000000e+00 +6.6251342435e+01 1.4147169461e+02 1.2500000000e+02 0.0000e+00 0.0000e+00
      -15  1    3    3    0    0 +2.1540291704e+01 +1.8352507743e+01 +6.7825134974e+01 7.3513300636e+01 1.7770000000e+00 0.0000e+00 -1.0000e+00
       15  1    3    3    0    0 +2.7837643214e+00 +1.6955030561e+01 +1.4110589709e+01 2.2304458658e+01 1.7770000000e+00 0.0000e+00 -1.0000e+00
       22  1    3    3    0    0 -2.4324056025e+01 -3.5307538305e+01 -1.5684382251e+01 4.5653935309e+01 0.0000000000e+00 0.0000e+00 -1.0000e+00
<mgrwt>
<rscale>  2 0.12500000E+03</rscale>
<asrwt>0</asrwt>
<pdfrwt beam="1">  1       21 0.15273753E-01 0.12500000E+03</pdfrwt>
<pdfrwt beam="2">  1       21 0.55309082E-02 0.12500000E+03</pdfrwt>
<totfact> 0.86085495E+06</totfact>
</mgrwt>
</event>
<event>
 6      0 +9.8758382e+01 1.25000000e+02 7.54677100e-03 1.12640300e-01
       21 -1    0    0  502  501 +0.0000000000e+00 +0.0000000000e+00 +9.5585602435e+00 9.5585602435e+00 0.0000000000e+00 0.0000e+00 -1.0000e+00
       21 -1    0    0  501  502 -0.0000000000e+00 -0.0000000000e+00 -4.0866510233e+02 4.0866510233e+02 0.0000000000e+00 0.0000e+00 -1.0000e+00
       25  2    1    2    0    0 +0.0000000000e+00 +0.0000000000e+00 -3.9910654208e+02 4.1822366257e+02 1.2500000000e+02 0.0000e+00 0.0000e+00
      -15  1    3    3    0    0 +1.5889714582e+01 +2.8051105573e+01 -2.5983185128e+02 2.6183028133e+02 1.7770000000e+00 0.0000e+00 -1.0000e+00
       15  1    3    3    0    0 -3.9906401311e+01 -1.8303310053e+01 -1.0126853649e+02 1.1039024521e+02 1.7770000000e+00 0.0000e+00 -1.0000e+00
       22  1    3    3    0    0 +2.4016686729e+01 -9.7477955194e+00 -3.8006154277e+01 4.6003136000e+01 0.0000000000e+00 0.0000e+00 -1.0000e+00
<mgrwt>
<rscale>  2 0.12500000E+03</rscale>
<asrwt>0</asrwt>
<pdfrwt beam="1">  1       21 0.14056703E-02 0.12500000E+03</pdfrwt>
<pdfrwt beam="2">  1       21 0.60097824E-01 0.12500000E+03</pdfrwt>
<totfact> 0.52005404E+06</totfact>
</mgrwt>
</event>
<event>
 6      0 +9.8758382e+01 1.25000000e+02 7.54677100e-03 1.12640300e-01
       21 -1    0    0  502  501 +0.0000000000e+00 +0.0000000000e+00 +1.8439485260e+02 1.8439485260e+02 0.0000000000e+00 0.0000e+00 -1.0000e+00
       21 -1    0    0  501  502 -0.0000000000e+00 -0.0000000000e+00 -2.1184159671e+01 2.1184159671e+01 0.0000000000e+00 0.0000e+00 -1.0000e+00
       25  2    1    2    0    0 +0.0000000000e+00 +0.0000000000e+00 +1.6321069293e+02 2.0557901227e+02 1.2500000000e+02 0.0000e+00 0.0000e+00
      -15  1    3    3    0    0 -2.9743680533e+01 -1.6062469427e+01 +3.6109689598e+01 4.9495018614e+01 1.7770000000e+00 0.0000e+00 -1.0000e+00
       15  1    3    3    0    0 -1.6383899556e+01 +3.1622594070e+00 +9.9289695021e+01 1.0069773243e+02 1.7770000000e+00 0.0000e+00 -1.0000e+00
       22  1    3    3    0    0 +4.6127580089e+01 +1.2900210020e+01 +2.7811308315e+01 5.5386261236e+01 0.0000000000e+00 0.0000e+00 -1.0000e+00
<mgrwt>
<rscale>  2 0.12500000E+03</rscale>
<asrwt>0</asrwt>
<pdfrwt beam="1">  1       21 0.27116889E-01 0.12500000E+03</pdfrwt>
<pdfrwt beam="2">  1       21 0.31153177E-02 0.12500000E+03</pdfrwt>
<totfact> 0.76012673E+06</totfact>
</mgrwt>
</event>
<event>
 6      0 +9.8758382e+01 1.25000000e+02 7.54677100e-03 1.12640300e-01
       21 -1    0    0  502  501 +0.0000000000e+00 +0.0000000000e+00 +1.2335322547e+02 1.2335322547e+02 0.0000000000e+00 0.0000e+00 1.0000e+00
       21 -1    0    0  501  502 -0.0000000000e+00 -0.0000000000e+00 -3.1667189771e+01 3.1667189771e+01 0.0000000000e+00 0.0000e+00 1.0000e+00
       25  2    1    2    0    0 +0.0000000000e+00 +0.0000000000e+00 +9.1686035703e+01 1.5502041525e+02 1.2500000000e+02 0.0000e+00 0.0000e+00
      -15  1    3    3    0    0 +4.9410069507e+00 -3.2783187309e+01 +6.9850514822e+01 7.7339531093e+01 1.7770000000e+00 0.0000e+00 -1.0000e+00
       15  1    3    3    0    0 -3.8939218712e+00 -1.9624045526e+01 +1.4455053854e+01 2.4746153262e+01 1.7770000000e+00 0.0000e+00 -1.0000e+00
       22  1    3    3    0    0 -1.0470850795e+00 +5.2407232836e+01 +7.3804670231e+00 5.2934730887e+01 0.0000000000e+00 0.0000e+00 -1.0000e+00
<mgrwt>
<rscale>  2 0.12500000E+03</rscale>
<asrwt>0</asrwt>
<pdfrwt beam="1">  1       21 0.18140180E-01 0.12500000E+03</pdfrwt>
<pdfrwt beam="2">  1       21 0.46569397E-02 0.12500000E+03</pdfrwt>
<totfact> 0.83792071E+06</totfact>
</mgrwt>
</event>
<event>
 6      0 +9.8758382e+01 1.25000000e+02 7.54677100e-03 1.12640300e-01
       21 -1    0    0  502  501 +0.0000000000e+00 +0.0000000000e+00 +5.1483538387e+01 5.1483538387e+01 0.0000000000e+00 0.0000e+00 1.0000e+00
       21 -1    0    0  501  502 -0.0000000000e+00 -0.0000000000e+00 -7.5873767079e+01 7.5873767079e+01 0.0000000000e+00 0.0000e+00 1.0000e+00
       25  2    1    2    0    0 +0.0000000000e+00 +0.0000000000e+00 -2.4390228691e+01 1.2735730547e+02 1.2500000000e+02 0.0000e+00 0.0000e+00
      -15  1    3    3    0    0 -5.2629236804e+01 -1.0628752303e+01 +7.3764667801e+00 5.4225242584e+01 1.7770000000e+00 0.0000e+00 -1.0000e+00
       15  1    3    3    0    0 -1.1295357534e+00 +7.2380004947e+00 -1.4881851241e+01 1.6682078034e+01 1.7770000000e+00 0.0000e+00 -1.0000e+00
       22  1    3    3    0    0 +5.3758772558e+01 +3.3907518086e+00 -1.6884844229e+01 5.6449984849e+01 0.0000000000e+00 0.0000e+00 -1.0000e+00
<mgrwt>
<rscale>  2 0.12500000E+03</rscale>
<asrwt>0</asrwt>
<pdfrwt beam="1">  1       21 0.75711087E-02 0.12500000E+03</pdfrwt>
<pdfrwt beam="2">  1       21 0.11157907E-01 0.12500000E+03</pdfrwt>
<totfact> 0.88570519E+06</totfact>
</mgrwt>
</event>
<event>
 6      0 +9.8758382e+01 1.25000000e+02 7.54677100e-03 1.12640300e-01
       21 -1    0    0  502  501 +0.0000000000e+00 +0.0000000000e+00 +1.3054531564e+01 1.3054531564e+01 0.0000000000e+00 0.0000e+00 1.0000e+00
       21 -1    0    0  501  502 -0.0000000000e+00 -0.0000000000e+00 -2.9922559694e+02 2.9922559694e+02 0.0000000000e+00 0.0000e+00 1.0000e+00
       25  2    1    2    0    0 +0.0000000000e+00 +0.0000000000e+00 -2.8617106538e+02 3.1228012851e+02 1.2500000000e+02 0.0000e+00 0.0000e+00
      -15  1    3    3    0    0 +1.8772113729e+01 -7.6285730229e+00 -2.2401408088e+01 3.0258357416e+01 1.7770000000e+00 0.0000e+00 -1.0000e+00
       15  1    3    3    0    0 +1.2874312468e+01 +4.5055706507e+00 +2.3967333985e+00 1.3962454955e+01 1.7770000000e+00 0.0000e+00 -1.0000e+00
       22  1    3    3    0    0 -3.1646426197e+01 +3.1230023722e+00 -2.6616639067e+02 2.6805931612e+02 0.0000000000e+00 0.0000e+00 -1.0000e+00
<mgrwt>
<rscale>  2 0.12500000E+03</rscale>
<asrwt>0</asrwt>
<pdfrwt beam="1">  1       21 0.19197838E-02 0.12500000E+03</pdfrwt>
<pdfrwt beam="2">  1       21 0.44003770E-01 0.12500000E+03</pdfrwt>
<totfact> 0.62559714E+06</totfact>
</mgrwt>
</event>
<event>
 6      0 +9.8758382e+01 1.25000000e+02 7.54677100e-03 1.12640300e-01
       21 -1    0    0  502  501 +0.0000000000e+00 +0.0000000000e+00 +1.4052625813e+01 1.4052625813e+01 0.0000000000e+00 0.0000e+00 1.0000e+00
       21 -1    0    0  501  502 -0.0000000000e+00 -0.0000000000e+00 -2.7797296049e+02 2.7797296049e+02 0.0000000000e+00 0.0000e+00 1.0000e+00
       25  2    1    2    0    0 +0.0000000000e+00 +0.0000000000e+00 -2.6392033468e+02 2.9202558631e+02 1.2500000000e+02 0.0000e+00 0.0000e+00
      -15  1    3    3    0    0 -2.2848608648e+01 +7.4804085658e-02 -5.6877422525e+01 6.1320986904e+01 1.7770000000e+00 0.0000e+00 -1.0000e+00
       15  1    3    3    0    0 -3.2040129790e+01 +1.4364928940e+01 -1.3208179239e+02 1.3668093762e+02 1.7770000000e+00 0.0000e+00 -1.0000e+00
       22  1    3    3    0    0 +5.4888738438e+01 -1.4439733026e+01 -7.4961119750e+01 9.4023661763e+01 0.0000000000e+00 0.0000e+00 -1.0000e+00
<mgrwt>
<rscale>  2 0.12500000E+03</rscale>
<asrwt>0</asrwt>
<pdfrwt beam="1">  1       21 0.20665628E-02 0.12500000E+03</pdfrwt>
<pdfrwt beam="2">  1       21 0.40878372E-01 0.12500000E+03</pdfrwt>
<totfact> 0.64873187E+06</totfact>
</mgrwt>
</event>
<event>
 6      0 +9.8758382e+01 1.25000000e+02 7.54677100e-03 1.12640300e-01
       21 -1    0    0  502  501 +0.0000000000e+00 +0.0000000000e+00 +1.6481785204e+01 1.6481785204e+01 0.0000000000e+00 0.0000e+00 -1.0000e+00
       21 -1    0    0  501  502 -0.0000000000e+00 -0.0000000000e+00 -2.3700405944e+02 2.3700405944e+02 0.0000000000e+00 0.0000e+00 -1.0000e+00
       25  2    1    2    0    0 +0.0000000000e+00 +0.0000000000e+00 -2.2052227423e+02 2.5348584464e+02 1.2500000000e+02 0.0000e+00 0.0000e+00
      -15  1    3    3    0    0 -8.8718197608e+00 +5.3189837221e+01 -8.9300215649e+01 1.0433385938e+02 1.7770000000e+00 0.0000e+00 -1.0000e+00
       15  1    3    3    0    0 +1.0870002549e+01 +2.7528952353e+00 -8.2369572553e+00 1.4026424399e+01 1.7770000000e+00 0.0000e+00 -1.0000e+00
       22  1    3    3    0    0 -1.9981827878e+00 -5.5942732456e+01 -1.2298510132e+02 1.3512556085e+02 0.0000000000e+00 0.0000e+00 -1.0000e+00
<mgrwt>
<rscale>  2 0.12500000E+03</rscale>
<asrwt>0</asrwt>
<pdfrwt beam="1">  1       21 0.24237922E-02 0.12500000E+03</pdfrwt>
<pdfrwt beam="2">  1       21 0.34853534E-01 0.12500000E+03</pdfrwt>
<totfact> 0.69557152E+06</totfact>
</mgrwt>
</event>
<event>
 6      0 +9.8758382e+01 1.25000000e+02 7.54677100e-03 1.12640300e-01
       21 -1    0    0  502  501 +0.0000000000e+00 +0.0000000000e+00 +1.5794673683e+02 1.5794673683e+02 0.0000000000e+00 0.0000e+00 -1.0000e+00
       21 -1    0    0  501  502 -0.0000000000e+00 -0.0000000000e+00 -2.4731438448e+01 2.4731438448e+01 0.0000000000e+00 0.0000e+00 -1.0000e+00
       25  2    1    2    0    0 +0.0000000000e+00 +0.0000000000e+00 +1.3321529838e+02 1.8267817528e+02 1.2500000000e+02 0.0000e+00 0.0000e+00
      -15  1    3    3    0    0 +6.2687592753e+00 -3.4302268921e+00 +8.7648850006e+00 1.1447477340e+01 1.7770000000e+00 0.0000e+00 -1.0000e+00
       15  1    3    3    0    0 -5.4206862855e+01 -1.6630068337e+01 +9.7225090961e+01 1.1256473335e+02 1.7770000000e+00 0.0000e+00 -1.0000e+00
       22  1    3    3    0    0 +4.7938103580e+01 +2.0060295229e+01 +2.7225322413e+01 5.8665964579e+01 0.0000000000e+00 0.0000e+00 -1.0000e+00
<mgrwt>
<rscale>  2 0.12500000E+03</rscale>
<asrwt>0</asrwt>
<pdfrwt beam="1">  1       21 0.23227461E-01 0.12500000E+03</pdfrwt>
<pdfrwt beam="2">  1       21 0.36369763E-02 0.12500000E+03</pdfrwt>
<totfact> 0.79398226E+06</totfact>
</mgrwt>
</event>
<event>
 6      0 +9.8758382e+01 1.25000000e+02 7.54677100e-03 1.12640300e-01
       21 -1    0    0  502  501 +0.0000000000e+00 +0.0000000000e+00 +5.0599193161e+01 5.0599193161e+01 0.0000000000e+00 0.0000e+00 -1.0000e+00
       21 -1    0    0  501  502 -0.0000000000e+00 -0.0000000000e+00 -7.7199847585e+01 7.7199847585e+01 0.0000000000e+00 0.0000e+00 -1.0000e+00
       25  2    1    2    0    0 +0.0000000000e+00 +0.0000000000e+00 -2.6600654424e+01 1.2779904075e+02 1.2500000000e+02 0.0000e+00 0.0000e+00
      -15  1    3    3    0    0 -1.4979835728e+01 -3.3321706029e+01 +8.5477725471e-01 3.6587155455e+01 1.7770000000e+00 0.0000e+00 -1.0000e+00
       15  1    3    3    0    0 +1.2241027066e+01 -1.9272617286e+01 -3.0868706876e+01 3.8435807705e+01 1.7770000000e+00 0.0000e+00 -1.0000e+00
       22  1    3    3    0    0 +2.7388086620e+00 +5.2594323315e+01 +3.4132751984e+00 5.2776077587e+01 0.0000000000e+00 0.0000e+00 -1.0000e+00
<mgrwt>
<rscale>  2 0.12500000E+03</rscale>
<asrwt>0</asrwt>
<pdfrwt beam="1">  1       21 0.74410580E-02 0.12500000E+03</pdfrwt>
<pdfrwt beam="2">  1       21 0.11352919E-01 0.12500000E+03</pdfrwt>
<totfact> 0.88493032E+06</totfact>
</mgrwt>
</event>
<event>
 6      0 +9.8758382e+01 1.25000000e+02 7.54677100e-03 1.12640300e-01
       21 -1    0    0  502  501 +0.0000000000e+00 +0.0000000000e+00 +9.4242088775e+01 9.4242088775e+01 0.0000000000e+00 0.0000e+00 1.0000e+00
       21 -1    0    0  501  502 -0.0000000000e+00 -0.0000000000e+00 -4.1449102527e+01 4.1449102527e+01 0.0000000000e+00 0.0000e+00 1.0000e+00
       25  2    1    2    0    0 +0.0000000000e+00 +0.0000000000e+00 +5.2792986247e+01 1.3569119130e+02 1.2500000000e+02 0.0000e+00 0.0000e+00
      -15  1    3    3    0    0 +1.9296309740e+01 +1.6706382495e+01 +1.7086658508e+01 3.0766254462e+01 1.7770000000e+00 0.0000e+00 -1.0000e+00
       15  1    3    3    0    0 -2.2769351870e+01 +3.4189869149e+01 -2.4957971595e+00 4.1191956368e+01 1.7770000000e+00 0.0000e+00 -1.0000e+00
       22  1    3    3    0    0 +3.4730421305e+00 -5.0896251644e+01 +3.8202124899e+01 6.3732980472e+01 0.0000000000e+00 0.0000e+00 -1.0000e+00
<mgrwt>
<rscale>  2 0.12500000E+03</rscale>
<asrwt>0</asrwt>
<pdfrwt beam="1">  1       21 0.13859131E-01 0.12500000E+03</pdfrwt>
<pdfrwt beam="2">  1       21 0.60954563E-02 0.12500000E+03</pdfrwt>
<totfact> 0.87085244E+06</totfact>
</mgrwt>
</event>
<event>
 6      0 +9.8758382e+01 1.25000000e+02 7.54677100e-03 1.12640300e-01
       21 -1    0    0  502  501 +0.0000000000e+00 +0.0000000000e+00 +3.4259951872e+02 3.4259951872e+02 0.0000000000e+00 0.0000e+00 -1.0000e+00
       21 -1    0    0  501  502 -0.0000000000e+00 -0.0000000000e+00 -1.1401796519e+01 1.1401796519e+01 0.0000000000e+00 0.0000e+00 -1.0000e+00
       25  2    1    2    0    0 +0.0000000000e+00 +0.0000000000e+00 +3.3119772220e+02 3.5400131524e+02 1.2500000000e+02 0.0000e+00 0.0000e+00
      -15  1    3    3    0    0 -1.2394158522e+01 -2.2095731276e+01 +4.4687117998e+01 5.1399734922e+01 1.7770000000e+00 0.0000e+00 -1.0000e+00
       15  1    3    3    0    0 -1.6757824189e+01 -3.1252368524e+01 +8.4929425626e+01 9.2052703795e+01 1.7770000000e+00 0.0000e+00 -1.0000e+00
       22  1    3    3    0    0 +2.9151982711e+01 +5.3348099800e+01 +2.0158117856e+02 2.1054887651e+02 0.0000000000e+00 0.0000e+00 -1.0000e+00
<mgrwt>
<rscale>  2 0.12500000E+03</rscale>
<asrwt>0</asrwt>
<pdfrwt beam="1">  1       21 0.50382276E-01 0.12500000E+03</pdfrwt>
<pdfrwt beam="2">  1       21 0.16767350E-02 0.12500000E+03</pdfrwt>
<totfact> 0.58120713E+06</totfact>
</mgrwt>
</event>
<event>
 6      0 +9.8758382e+01 1.25000000e+02 7.54677100e-03 1.12640300e-01
       21 -1    0    0  502  501 +0.0000000000e+00 +0.0000000000e+00 +2.3025280955e+01 2.3025280955e+01 0.0000000000e+00 0.0000e+00 -1.0000e+00
       21 -1    0    0  501  502 -0.0000000000e+00 -0.0000000000e+00 -1.6965048147e+02 1.6965048147e+02 0.0000000000e+00 0.0000e+00 -1.0000e+00
       25  2    1    2    0    0 +0.0000000000e+00 +0.0000000000e+00 -1.4662520052e+02 1.9267576243e+02 1.2500000000e+02 0.0000e+00 0.0000e+00
      -15  1    3    3    0    0 +3.0528663439e+01 +1.1719465714e+01 -5.8104713741e+01 6.6698280757e+01 1.7770000000e+00 0.0000e+00 -1.0000e+00
       15  1    3    3    0    0 +1.9652016537e+01 +4.2476504621e+00 -6.5439413372e+01 6.8481521887e+01 1.7770000000e+00 0.0000e+00 -1.0000e+00
       22  1    3    3    0    0 -5.0180679976e+01 -1.5967116176e+01 -2.3081073404e+01 5.7495959783e+01 0.0000000000e+00 0.0000e+00 -1.0000e+00
<mgrwt>
<rscale>  2 0.12500000E+03</rscale>
<asrwt>0</asrwt>
<pdfrwt beam="1">  1       21 0.33860707E-02 0.12500000E+03</pdfrwt>
<pdfrwt beam="2">  1       21 0.24948601E-01 0.12500000E+03</pdfrwt>
<totfact> 0.77899223E+06</totfact>
</mgrwt>
</event>
<event>
 6      0 +9.8758382e+01 1.25000000e+02 7.54677100e-03 1.12640300e-01
       21 -1    0    0  502  501 +0.0000000000e+00 +0.0000000000e+00 +7.7024893043e+01 7.7024893043e+01 0.0000000000e+00 0.0000e+00 -1.0000e+00
       21 -1    0    0  501  502 -0.0000000000e+00 -0.0000000000e+00 -5.0714124301e+01 5.0714124301e+01 0.0000000000e+00 0.0000e+00 -1.0000e+00
       25  2    1    2    0    0 +0.0000000000e+00 +0.0000000000e+00 +2.6310768742e+01 1.2773901734e+02 1.2500000000e+02 0.0000e+00 0.0000e+00
      -15  1    3    3    0    0 +5.3136254958e-02 -2.3509616224e+01 -2.4440899896e+01 3.3959095912e+01 1.7770000000e+00 0.0000e+00 -1.0000e+00
       15  1    3    3    0    0 -4.4824125755e+00 -1.5417946401e+01 +5.2131323980e+01 5.4576897701e+01 1.7770000000e+00 0.0000e+00 -1.0000e+00
       22  1    3    3    0    0 +4.4292763206e+00 +3.8927562625e+01 -1.3796553412e+00 3.9203023730e+01 0.0000000000e+00 0.0000e+00 -1.0000e+00
<mgrwt>
<rscale>  2 0.12500000E+03</rscale>
<asrwt>0</asrwt>
<pdfrwt beam="1">  1       21 0.11327190E-01 0.12500000E+03</pdfrwt>
<pdfrwt beam="2">  1       21 0.74579594E-02 0.12500000E+03</pdfrwt>
<totfact> 0.88503551E+06</totfact>
</mgrwt>
</event>
<event>
 6      0 +9.8758382e+01 1.25000000e+02 7.54677100e-03 1.12640300e-01
       21 -1    0    0  502  501 +0.0000000000e+00 +0.0000000000e+00 +2.8117198771e+02 2.8117198771e+02 0.0000000000e+00 0.0000e+00 -1.0000e+00
       21 -1    0    0  501  502 -0.0000000000e+00 -0.0000000000e+00 -1.3892742416e+01 1.3892742416e+01 0.0000000000e+00 0.0000e+00 -1.0000e+00
       25  2    1    2    0    0 +0.0000000000e+00 +0.0000000000e+00 +2.6727924530e+02 2.9506473013e+02 1.2500000000e+02 0.0000e+00 0.0000e+00
      -15  1    3    3    0    0 -2.1289569528e+01 +3.3845621291e+00 +1.4345471374e+02 1.4507623394e+02 1.7770000000e+00 0.0000e+00 -1.0000e+00
       15  1    3    3    0    0 -2.0151371248e+01 -2.0459743378e+01 +8.8078459498e+01 9.2658791374e+01 1.7770000000e+00 0.0000e+00 -1.0000e+00
       22  1    3    3    0    0 +4.1440940776e+01 +1.7075181249e+01 +3.5746072076e+01 5.7329704830e+01 0.0000000000e+00 0.0000e+00 -1.0000e+00
<mgrwt>
<rscale>  2 0.12500000E+03</rscale>
<asrwt>0</asrwt>
<pdfrwt beam="1">  1       21 0.41348818E-01 0.12500000E+03</pdfrwt>
<pdfrwt beam="2">  1       21 0.20430505E-02 0.12500000E+03</pdfrwt>
<totfact> 0.64519824E+06</totfact>
</mgrwt>
</event>
<event>
 6      0 +9.8758382e+01 1.25000000e+02 7.54677100e-03 1.12640300e-01
       21 -1    0    0  502  501 +0.0000000000e+00 +0.0000000000e+00 +7.0444428738e+01 7.0444428738e+01 0.0000000000e+00 0.0000e+00 -1.0000e+00
       21 -1    0    0  501  502 -0.0000000000e+00 -0.0000000000e+00 -5.5451510787e+01 5.5451510787e+01 0.0000000000e+00 0.0000e+00 -1.0000e+00
       25  2    1    2    0    0 +0.0000000000e+00 +0.0000000000e+00 +1.4992917951e+01 1.2589593952e+02 1.2500000000e+02 0.0000e+00 0.0000e+00
      -15  1    3    3    0    0 +5.2514364302e+00 +2.6024175575e+01 +3.8437072884e+01 4.6748279112e+01 1.7770000000e+00 0.0000e+00 -1.0000e+00
       15  1    3    3    0    0 +2.9585728915e+00 -2.8705225276e+01 +1.9804849889e+01 3.5044727418e+01 1.7770000000e+00 0.0000e+00 -1.0000e+00
       22  1    3    3    0    0 -8.2100093217e+00 +2.6810497010e+00 -4.3249004822e+01 4.4102932994e+01 0.0000000000e+00 0.0000e+00 -1.0000e+00
<mgrwt>
<rscale>  2 0.12500000E+03</rscale>
<asrwt>0</asrwt>
<pdfrwt beam="1">  1       21 0.10359475E-01 0.12500000E+03</pdfrwt>
<pdfrwt beam="2">  1       21 0.81546339E-02 0.12500000E+03</pdfrwt>
<totfact> 0.88830626E+06</totfact>
</mgrwt>
</event>
<event>
 6      0 +9.8758382e+01 1.25000000e+02 7.54677100e-03 1.12640300e-01
       21 -1    0    0  502  501 +0.0000000000e+00 +0.0000000000e+00 +1.3562935707e+03 1.3562935707e+03 0.0000000000e+00 0.0000e+00 -1.0000e+00
       21 -1    0    0  501  502 -0.0000000000e+00 -0.0000000000e+00 -2.8800918064e+00 2.8800918064e+00 0.0000000000e+00 0.0000e+00 -1.0000e+00
       25  2    1    2    0    0 +0.0000000000e+00 +0.0000000000e+00 +1.3534134789e+03 1.3591736625e+03 1.2500000000e+02 0.0000e+00 0.0000e+00
      -15  1    3    3    0    0 +1.0750433203e+01 +4.7893644752e+00 +7.5229514963e+01 7.6165264239e+01 1.7770000000e+00 0.0000e+00 -1.0000e+00
       15  1    3    3    0    0 +1.0744939809e+00 -5.1839353153e+01 +9.3185508747e+02 9.3329820253e+02 1.7770000000e+00 0.0000e+00 -1.0000e+00
       22  1    3    3    0    0 -1.1824927184e+01 +4.7049988678e+01 +3.4632887796e+02 3.4971019723e+02 0.0000000000e+00 0.0000e+00 -1.0000e+00
<mgrwt>
<rscale>  2 0.12500000E+03</rscale>
<asrwt>0</asrwt>
<pdfrwt beam="1">  1       21 0.19945449E+00 0.12500000E+03</pdfrwt>
<pdfrwt beam="2">  1       21 0.42354386E-03 0.12500000E+03</pdfrwt>
<totfact> 0.12872945E+06</totfact>
</mgrwt>
</event>
<event>
 6      0 +9.8758382e+01 1.25000000e+02 7.54677100e-03 1.12640300e-01
       21 -1    0    0  502  501 +0.0000000000e+00 +0.0000000000e+00 +7.4683121952e+00 7.4683121952e+00 0.0000000000e+00 0.0000e+00 -1.0000e+00
       21 -1    0    0  501  502 -0.0000000000e+00 -0.0000000000e+00 -5.2304321216e+02 5.2304321216e+02 0.0000000000e+00 0.0000e+00 -1.0000e+00
       25  2    1    2    0    0 +0.0000000000e+00 +0.0000000000e+00 -5.1557489996e+02 5.3051152435e+02 1.2500000000e+02 0.0000e+00 0.0000e+00
      -15  1    3    3    0    0 -5.7684889944e+00 +1.7689097306e+01 -7.2736193708e+01 7.5099209269e+01 1.7770000000e+00 0.0000e+00 -1.0000e+00
       15  1    3    3    0    0 +1.4924228630e+01 +3.6136078581e+01 -8.6847399719e+01 9.5258476486e+01 1.7770000000e+00 0.0000e+00 -1.0000e+00
       22  1    3    3    0    0 -9.1557396358e+00 -5.3825175887e+01 -3.5599130655e+02 3.6015383861e+02 0.0000000000e+00 0.0000e+00 -1.0000e+00
<mgrwt>
<rscale>  2 0.12500000E+03</rscale>
<asrwt>0</asrwt>
<pdfrwt beam="1">  1       21 0.10982811E-02 0.12500000E+03</pdfrwt>
<pdfrwt beam="2">  1       21 0.76918124E-01 0.12500000E+03</pdfrwt>
<totfact> 0.43130789E+06</totfact>
</mgrwt>
</event>
<event>
 6      0 +9.8758382e+01 1.25000000e+02 7.54677100e-03 1.12640300e-01
       21 -1    0    0  502  501 +0.0000000000e+00 +0.0000000000e+00 +1.2116868009e+02 1.2116868009e+02 0.0000000000e+00 0.0000e+00 -1.0000e+00
       21 -1    0    0  501  502 -0.0000000000e+00 -0.0000000000e+00 -3.2238116296e+01 3.2238116296e+01 0.0000000000e+00 0.0000e+00 -1.0000e+00
       25  2    1    2    0    0 +0.0000000000e+00 +0.0000000000e+00 +8.8930563790e+01 1.5340679638e+02 1.2500000000e+02 0.0000e+00 0.0000e+00
      -15  1    3    3    0    0 -3.9199405759e+00 -2.1318015465e+01 +8.6102160759e+01 8.8806325978e+01 1.7770000000e+00 0.0000e+00 -1.0000e+00
       15  1    3    3    0    0 -4.0967017386e+00 +3.9056818316e+01 +1.4503711424e+01 4.1901472483e+01 1.7770000000e+00 0.0000e+00 -1.0000e+00
       22  1    3    3    0    0 +8.0166423144e+00 -1.7738802851e+01 -1.1675308390e+01 2.2698997922e+01 0.0000000000e+00 0.0000e+00 -1.0000e+00
<mgrwt>
<rscale>  2 0.12500000E+03</rscale>
<asrwt>0</asrwt>
<pdfrwt beam="1">  1       21 0.17818923E-01 0.12500000E+03</pdfrwt>
<pdfrwt beam="2">  1       21 0.47408995E-02 0.12500000E+03</pdfrwt>
<totfact> 0.84058133E+06</totfact>
</mgrwt>
</event>
<event>
 6      0 +9.8758382e+01 1.25000000e+02 7.54677100e-03 1.12640300e-01
       21 -1    0    0  502  501 +0.0000000000e+00 +0.0000000000e+00 +7.7161382495e+01 7.7161382495e+01 0.0000000000e+00 0.0000e+00 1.0000e+00
       21 -1    0    0  501  502 -0.0000000000e+00 -0.0000000000e+00 -5.0624416952e+01 5.0624416952e+01 0.0000000000e+00 0.0000e+00 1.0000e+00
       25  2    1    2    0    0 +0.0000000000e+00 +0.0000000000e+00 +2.6536965543e+01 1.2778579945e+02 1.2500000000e+02 0.0000e+00 0.0000e+00
      -15  1    3    3    0    0 -2.7852823857e+00 -3.9213562791e+01 +4.3840259945e+01 5.8911691758e+01 1.7770000000e+00 0.0000e+00 -1.0000e+00
       15  1    3    3    0    0 -1.0996708846e+00 -1.3380159540e+01 -6.0213642293e-01 1.3555745743e+01 1.7770000000e+00 0.0000e+00 -1.0000e+00
       22  1    3    3    0    0 +3.8849532703e+00 +5.2593722331e+01 -1.6701157979e+01 5.5318361946e+01 0.0000000000e+00 0.0000e+00 -1.0000e+00
<mgrwt>
<rscale>  2 0.12500000E+03</rscale>
<asrwt>0</asrwt>
<pdfrwt beam="1">  1       21 0.11347262E-01 0.12500000E+03</pdfrwt>
<pdfrwt beam="2">  1       21 0.74447672E-02 0.12500000E+03</pdfrwt>
<totfact> 0.88495354E+06</totfact>
</mgrwt>
</event>
<event>
 6      0 +9.8758382e+01 1.25000000e+02 7.54677100e-03 1.12640300e-01
       21 -1    0    0  502  501 +0.0000000000e+00 +0.0000000000e+00 +4.4267197572e+02 4.4267197572e+02 0.0000000000e+00 0.0000e+00 -1.0000e+00
       21 -1    0    0  501  502 -0.0000000000e+00 -0.0000000000e+00 -8.8242541074e+00 8.8242541074e+00 0.0000000000e+00 0.0000e+00 -1.0000e+00
       25  2    1    2    0    0 +0.0000000000e+00 +0.0000000000e+00 +4.3384772162e+02 4.5149622983e+02 1.2500000000e+02 0.0000e+00 0.0000e+00
      -15  1    3    3    0    0 -3.4058254566e+00 -6.9049122430e+00 +2.9493382801e+02 2.9503965512e+02 1.7770000000e+00 0.0000e+00 -1.0000e+00
       15  1    3    3    0    0 -2.0649276191e+01 +5.0054702562e-01 +1.2731855444e+02 1.2899540763e+02 1.7770000000e+00 0.0000e+00 -1.0000e+00
       22  1    3    3    0    0 +2.4055101647e+01 +6.4043652174e+00 +1.1595339225e+01 2.7461167142e+01 0.0000000000e+00 0.0000e+00 -1.0000e+00
<mgrwt>
<rscale>  2 0.12500000E+03</rscale>
<asrwt>0</asrwt>
<pdfrwt beam="1">  1       21 0.65098805E-01 0.12500000E+03</pdfrwt>
<pdfrwt beam="2">  1       21 0.12976847E-02 0.12500000E+03</pdfrwt>
<totfact> 0.49151294E+06</totfact>
</mgrwt>
</event>
<event>
 6      0 +9.8758382e+01 1.25000000e+02 7.54677100e-03 1.12640300e-01
       21 -1    0    0  502  501 +0.0000000000e+00 +0.0000000000e+00 +8.3837314792e+02 8.3837314792e+02 0.0000000000e+00 0.0000e+00 1.0000e+00
       21 -1    0    0  501  502 -0.0000000000e+00 -0.0000000000e+00 -4.6593214605e+00 4.6593214605e+00 0.0000000000e+00 0.0000e+00 1.0000e+00
       25  2    1    2    0    0 +0.0000000000e+00 +0.0000000000e+00 +8.3371382646e+02 8.4303246938e+02 1.2500000000e+02 0.0000e+00 0.0000e+00
      -15  1    3    3    0    0 +3.2272086643e+01 -1.6765618075e+00 +1.3986566938e+02 1.4356135147e+02 1.7770000000e+00 0.0000e+00 -1.0000e+00
       15  1    3    3    0    0 +7.3163020803e+00 +2.8080371316e+01 +1.1310203927e+02 1.1677869903e+02 1.7770000000e+00 0.0000e+00 -1.0000e+00
       22  1    3    3    0    0 -3.9588388723e+01 -2.6403809509e+01 +5.8074611785e+02 5.8269241893e+02 0.0000000000e+00 0.0000e+00 -1.0000e+00
<mgrwt>
<rscale>  2 0.12500000E+03</rscale>
<asrwt>0</asrwt>
<pdfrwt beam="1">  1       21 0.12329006E+00 0.12500000E+03</pdfrwt>
<pdfrwt beam="2">  1       21 0.68519492E-03 0.12500000E+03</pdfrwt>
<totfact> 0.26544093E+06</totfact>
</mgrwt>
</event>
<event>
 6      0 +9.8758382e+01 1.25000000e+02 7.54677100e-03 1.12640300e-01
       21 -1    0    0  502  501 +0.0000000000e+00 +0.0000000000e+00 +2.6036244744e+02 2.6036244744e+02 0.0000000000e+00 0.0000e+00 -1.0000e+00
       21 -1    0    0  501  502 -0.0000000000e+00 -0.0000000000e+00 -1.5003123678e+01 1.5003123678e+01 0.0000000000e+00 0.0000e+00 -1.0000e+00
       25  2    1    2    0    0 +0.0000000000e+00 +0.0000000000e+00 +2.4535932376e+02 2.7536557111e+02 1.2500000000e+02 0.0000e+00 0.0000e+00
      -15  1    3    3    0    0 -2.3006512125e+01 +3.4946978670e+01 +9.0419133142e+01 9.9646215611e+01 1.7770000000e+00 0.0000e+00 -1.0000e+00
       15  1    3    3    0    0 -1.9855140842e+01 -1.8588176008e+01 +1.0241385087e+02 1.0597877846e+02 1.7770000000e+00 0.0000e+00 -1.0000e+00
       22  1    3    3    0    0 +4.2861652967e+01 -1.6358802661e+01 +5.2526339775e+01 6.9740577068e+01 0.0000000000e+00 0.0000e+00 -1.0000e+00
<mgrwt>
<rscale>  2 0.12500000E+03</rscale>
<asrwt>0</asrwt>
<pdfrwt beam="1">  1       21 0.38288592E-01 0.12500000E+03</pdfrwt>
<pdfrwt beam="2">  1       21 0.22063419E-02 0.12500000E+03</pdfrwt>
<totfact> 0.66847248E+06</totfact>
</mgrwt>
</event>
<event>
 6      0 +9.8758382e+01 1.25000000e+02 7.54677100e-03 1.12640300e-01
       21 -1    0    0  502  501 +0.0000000000e+00 +0.0000000000e+00 +3.4968788359e+01 3.4968788359e+01 0.0000000000e+00 0.0000e+00 1.0000e+00
       21 -1    0    0  501  502 -0.0000000000e+00 -0.0000000000e+00 -1.1170675861e+02 1.1170675861e+02 0.0000000000e+00 0.0000e+00 1.0000e+00
       25  2    1    2    0    0 +0.0000000000e+00 +0.0000000000e+00 -7.6737970249e+01 1.4667554697e+02 1.2500000000e+02 0.0000e+00 0.0000e+00
      -15  1    3    3    0    0 -2.8875139747e+01 -3.2587399931e+01 -1.7200212854e+00 4.3609959091e+01 1.7770000000e+00 0.0000e+00 -1.0000e+00
       15  1    3    3    0    0 -8.7611970099e+00 +3.1643759100e+01 -3.1708499476e+01 4.5680113081e+01 1.7770000000e+00 0.0000e+00 -1.0000e+00
       22  1    3    3    0    0 +3.7636336757e+01 +9.4364083076e-01 -4.3309449486e+01 5.7385474794e+01 0.0000000000e+00 0.0000e+00 -1.0000e+00
<mgrwt>
<rscale>  2 0.12500000E+03</rscale>
<asrwt>0</asrwt>
<pdfrwt beam="1">  1       21 0.51424688E-02 0.12500000E+03</pdfrwt>
<pdfrwt beam="2">  1       21 0.16427465E-01 0.12500000E+03</pdfrwt>
<totfact> 0.85187410E+06</totfact>
</mgrwt>
</event>
<event>
 6      0 +9.8758382e+01 1.25000000e+02 7.54677100e-03 1.12640300e-01
       21 -1    0    0  502  501 +0.0000000000e+00 +0.0000000000e+00 +9.8574173198e+00 9.8574173198e+00 0.0000000000e+00 0.0000e+00 1.0000e+00
       21 -1    0    0  501  502 -0.0000000000e+00 -0.0000000000e+00 -3.9627519798e+02 3.9627519798e+02 0.0000000000e+00 0.0000e+00 1.0000e+00
       25  2    1    2    0    0 +0.0000000000e+00 +0.0000000000e+00 -3.8641778066e+02 4.0613261530e+02 1.2500000000e+02 0.0000e+00 0.0000e+00
      -15  1    3    3    0    0 -6.8432249441e+00 +1.3360199424e+01 -6.2045767612e+01 6.3860470276e+01 1.7770000000e+00 0.0000e+00 -1.0000e+00
       15  1    3    3    0    0 -1.1674341532e+01 +4.1912420514e+01 -2.0313106675e+02 2.0774582848e+02 1.7770000000e+00 0.0000e+00 -1.0000e+00
       22  1    3    3    0    0 +1.8517566476e+01 -5.5272619939e+01 -1.2124094629e+02 1.3452631654e+02 0.0000000000e+00 0.0000e+00 -1.0000e+00
<mgrwt>
<rscale>  2 0.12500000E+03</rscale>
<asrwt>0</asrwt>
<pdfrwt beam="1">  1       21 0.14496202E-02 0.12500000E+03</pdfrwt>
<pdfrwt beam="2">  1       21 0.58275766E-01 0.12500000E+03</pdfrwt>
<totfact> 0.53093210E+06</totfact>
</mgrwt>
</event>
<event>
 6      0 +9.8758382e+01 1.25000000e+02 7.54677100e-03 1.12640300e-01
       21 -1    0    0  502  501 +0.0000000000e+00 +0.0000000000e+00 +1.4652526415e+02 1.4652526415e+02 0.0000000000e+00 0.0000e+00 1.0000e+00
       21 -1    0    0  501  502 -0.0000000000e+00 -0.0000000000e+00 -2.6659225102e+01 2.6659225102e+01 0.0000000000e+00 0.0000e+00 1.0000e+00
       25  2    1    2    0    0 +0.0000000000e+00 +0.0000000000e+00 +1.1986603904e+02 1.7318448925e+02 1.2500000000e+02 0.0000e+00 0.0000e+00
      -15  1    3    3    0    0 +2.2027703711e+01 +9.0858554241e+00 +3.9134318074e+01 4.5852209104e+01 1.7770000000e+00 0.0000e+00 -1.0000e+00
       15  1    3    3    0    0 +3.6695279129e+01 +3.0041806574e+00 +4.2347718120e+01 5.6143170295e+01 1.7770000000e+00 0.0000e+00 -1.0000e+00
       22  1    3    3    0    0 -5.8722982841e+01 -1.2090036081e+01 +3.8384002840e+01 7.1189109843e+01 0.0000000000e+00 0.0000e+00 -1.0000e+00
<mgrwt>
<rscale>  2 0.12500000E+03</rscale>
<asrwt>0</asrwt>
<pdfrwt beam="1">  1       21 0.21547833E-01 0.12500000E+03</pdfrwt>
<pdfrwt beam="2">  1       21 0.39204744E-02 0.12500000E+03</pdfrwt>
<totfact> 0.80861864E+06</totfact>
</mgrwt>
</event>
<event>
 6      0 +9.8758382e+01 1.25000000e+02 7.54677100e-03 1.12640300e-01
       21 -1    0    0  502  501 +0.0000000000e+00 +0.0000000000e+00 +8.7254632556e+01 8.7254632556e+01 0.0000000000e+00 0.0000e+00 1.0000e+00
       21 -1    0    0  501  502 -0.0000000000e+00 -0.0000000000e+00 -4.4768396652e+01 4.4768396652e+01 0.0000000000e+00 0.0000e+00 1.0000e+00
       25  2    1    2    0    0 +0.0000000000e+00 +0.0000000000e+00 +4.2486235904e+01 1.3202302921e+02 1.2500000000e+02 0.0000e+00 0.0000e+00
      -15  1    3    3    0    0 +1.0924225743e+01 +2.8646857541e+01 +2.5378467004e+01 3.9839747383e+01 1.7770000000e+00 0.0000e+00 -1.0000e+00
       15  1    3    3    0    0 +3.4979205223e+01 -1.4452297303e+01 +2.2122077929e+01 4.3874340522e+01 1.7770000000e+00 0.0000e+00 -1.0000e+00
       22  1    3    3    0    0 -4.5903430965e+01 -1.4194560238e+01 -5.0143090292e+00 4.8308941303e+01 0.0000000000e+00 0.0000e+00 -1.0000e+00
<mgrwt>
<rscale>  2 0.12500000E+03</rscale>
<asrwt>0</asrwt>
<pdfrwt beam="1">  1       21 0.12831564E-01 0.12500000E+03</pdfrwt>
<pdfrwt beam="2">  1       21 0.65835877E-02 0.12500000E+03</pdfrwt>
<totfact> 0.87732096E+06</totfact>
</mgrwt>
</event>
<event>
 6      0 +9.8758382e+01 1.25000000e+02 7.54677100e-03 1.12640300e-01
       21 -1    0    0  502  501 +0.0000000000e+00 +0.0000000000e+00 +2.2148624403e+01 2.2148624403e+01 0.0000000000e+00 0.0000e+00 1.0000e+00
       21 -1    0    0  501  502 -0.0000000000e+00 -0.0000000000e+00 -1.7636535475e+02 1.7636535475e+02 0.0000000000e+00 0.0000e+00 1.0000e+00
       25  2    1    2    0    0 +0.0000000000e+00 +0.0000000000e+00 -1.5421673035e+02 1.9851397915e+02 1.2500000000e+02 0.0000e+00 0.0000e+00
      -15  1    3    3    0    0 -3.5941917755e+01 -4.7796349625e+01 -8.1100699094e+01 1.0078091889e+02 1.7770000000e+00 0.0000e+00 -1.0000e+00
       15  1    3    3    0    0 +1.3355622423e+01 +6.7864659145e+00 -6.7803830507e+00 1.6539652150e+01 1.7770000000e+00 0.0000e+00 -1.0000e+00
       22  1    3    3    0    0 +2.2586295332e+01 +4.1009883710e+01 -6.6335648214e+01 8.1193408124e+01 0.0000000000e+00 0.0000e+00 -1.0000e+00
<mgrwt>
<rscale>  2 0.12500000E+03</rscale>
<asrwt>0</asrwt>
<pdfrwt beam="1">  1       21 0.32571507E-02 0.12500000E+03</pdfrwt>
<pdfrwt beam="2">  1       21 0.25936081E-01 0.12500000E+03</pdfrwt>
<totfact> 0.77036294E+06</totfact>
</mgrwt>
</event>
<event>
 6      0 +9.8758382e+01 1.25000000e+02 7.54677100e-03 1.12640300e-01
       21 -1    0    0  502  501 +0.0000000000e+00 +0.0000000000e+00 +1.1203631674e+02 1.1203631674e+02 0.0000000000e+00 0.0000e+00 1.0000e+00
       21 -1    0    0  501  502 -0.0000000000e+00 -0.0000000000e+00 -3.4865926635e+01 3.4865926635e+01 0.0000000000e+00 0.0000e+00 1.0000e+00
       25  2    1    2    0    0 +0.0000000000e+00 +0.0000000000e+00 +7.7170390108e+01 1.4690224338e+02 1.2500000000e+02 0.0000e+00 0.0000e+00
      -15  1    3    3    0    0 -2.1770191905e+01 -1.6414128049e+01 -1.0022686157e+01 2.9102866216e+01 1.7770000000e+00 0.0000e+00 -1.0000e+00
       15  1    3    3    0    0 +8.8407730826e+00 +3.1908135416e+01 +5.4507500662e+00 3.3602928142e+01 1.7770000000e+00 0.0000e+00 -1.0000e+00
       22  1    3    3    0    0 +1.2929418823e+01 -1.5494007367e+01 +8.1742326197e+01 8.4196449019e+01 0.0000000000e+00 0.0000e+00 -1.0000e+00
<mgrwt>
<rscale>  2 0.12500000E+03</rscale>
<asrwt>0</asrwt>
<pdfrwt beam="1">  1       21 0.16475929E-01 0.12500000E+03</pdfrwt>
<pdfrwt beam="2">  1       21 0.51273422E-02 0.12500000E+03</pdfrwt>
<totfact> 0.85148796E+06</totfact>
</mgrwt>
</event>
<event>
 6      0 +9.8758382e+01 1.25000000e+02 7.54677100e-03 1.12640300e-01
       21 -1    0    0  502  501 +0.0000000000e+00 +0.0000000000e+00 +3.3756435883e+02 3.3756435883e+02 0.0000000000e+00 0.0000e+00 1.0000e+00
       21 -1    0    0  501  502 -0.0000000000e+00 -0.0000000000e+00 -1.1571867402e+01 1.1571867402e+01 0.0000000000e+00 0.0000e+00 1.0000e+00
       25  2    1    2    0    0 +0.0000000000e+00 +0.0000000000e+00 +3.2599249143e+02 3.4913622623e+02 1.2500000000e+02 0.0000e+00 0.0000e+00
      -15  1    3    3    0    0 -4.8565934458e+00 +1.2142419036e+01 +6.3322002969e+00 1.4638283012e+01 1.7770000000e+00 0.0000e+00 -1.0000e+00
       15  1    3    3    0    0 +3.5096588221e+01 +2.2790370640e+01 +7.8737402013e+01 8.9184683121e+01 1.7770000000e+00 0.0000e+00 -1.0000e+00
       22  1    3    3    0    0 -3.0239994775e+01 -3.4932789676e+01 +2.4092288915e+02 2.4531326013e+02 0.0000000000e+00 0.0000e+00 -1.0000e+00
<mgrwt>
<rscale>  2 0.12500000E+03</rscale>
<asrwt>0</asrwt>
<pdfrwt beam="1">  1       21 0.49641811E-01 0.12500000E+03</pdfrwt>
<pdfrwt beam="2">  1       21 0.17017454E-02 0.12500000E+03</pdfrwt>
<totfact> 0.58617511E+06</totfact>
</mgrwt>
</event>
<event>
 6      0 +9.8758382e+01 1.25000000e+02 7.54677100e-03 1.12640300e-01
       21 -1    0    0  502  501 +0.0000000000e+00 +0.0000000000e+00 +8.0798797559e+02 8.0798797559e+02 0.0000000000e+00 0.0000e+00 1.0000e+00
       21 -1    0    0  501  502 -0.0000000000e+00 -0.0000000000e+00 -4.8345397679e+00 4.8345397679e+00 0.0000000000e+00 0.0000e+00 1.0000e+00
       25  2    1    2    0    0 +0.0000000000e+00 +0.0000000000e+00 +8.0315343582e+02 8.1282251536e+02 1.2500000000e+02 0.0000e+00 0.0000e+00
      -15  1    3    3    0    0 -1.7409369865e+01 -1.8338359149e+00 +6.2599308120e+01 6.5025227562e+01 1.7770000000e+00 0.0000e+00 -1.0000e+00
       15  1    3    3    0    0 -1.1798615386e+01 +2.9751743032e+01 +8.2571798278e+01 8.8575578679e+01 1.7770000000e+00 0.0000e+00 -1.0000e+00
       22  1    3    3    0    0 +2.9207985251e+01 -2.7917907117e+01 +6.5798232925e+02 6.5922170895e+02 0.0000000000e+00 0.0000e+00 -1.0000e+00
<mgrwt>
<rscale>  2 0.12500000E+03</rscale>
<asrwt>0</asrwt>
<pdfrwt beam="1">  1       21 0.11882167E+00 0.12500000E+03</pdfrwt>
<pdfrwt beam="2">  1       21 0.71096229E-03 0.12500000E+03</pdfrwt>
<totfact> 0.27752723E+06</totfact>
</mgrwt>
</event>
<event>
 6      0 +9.8758382e+01 1.25000000e+02 7.54677100e-03 1.12640300e-01
       21 -1    0    0  502  501 +0.0000000000e+00 +0.0000000000e+00 +3.9281165800e+01 3.9281165800e+01 0.0000000000e+00 0.0000e+00 1.0000e+00
       21 -1    0    0  501  502 -0.0000000000e+00 -0.0000000000e+00 -9.9443331694e+01 9.9443331694e+01 0.0000000000e+00 0.0000e+00 1.0000e+00
       25  2    1    2    0    0 +0.0000000000e+00 +0.0000000000e+00 -6.0162165893e+01 1.3872449749e+02 1.2500000000e+02 0.0000e+00 0.0000e+00
      -15  1    3    3    0    0 -2.7589972917e+01 +2.9469786854e+01 -4.2202604852e+01 5.8428524952e+01 1.7770000000e+00 0.0000e+00 -1.0000e+00
       15  1    3    3    0    0 +3.5881896776e+00 +2.0638563693e+01 -1.2522724572e+01 2.4470426563e+01 1.7770000000e+00 0.0000e+00 -1.0000e+00
       22  1    3    3    0    0 +2.4001783239e+01 -5.0108350547e+01 -5.4368364713e+00 5.5825545980e+01 0.0000000000e+00 0.0000e+00 -1.0000e+00
<mgrwt>
<rscale>  2 0.12500000E+03</rscale>
<asrwt>0</asrwt>
<pdfrwt beam="1">  1       21 0.57766421E-02 0.12500000E+03</pdfrwt>
<pdfrwt beam="2">  1       21 0.14624019E-01 0.12500000E+03</pdfrwt>
<totfact> 0.86560518E+06</totfact>
</mgrwt>
</event>
<event>
 6      0 +9.8758382e+01 1.25000000e+02 7.54677100e-03 1.12640300e-01
       21 -1    0    0  502  501 +0.0000000000e+00 +0.0000000000e+00 +8.9109942772e+01 8.9109942772e+01 0.0000000000e+00 0.0000e+00 -1.0000e+00
       21 -1    0    0  501  502 -0.0000000000e+00 -0.0000000000e+00 -4.3836297931e+01 4.3836297931e+01 0.0000000000e+00 0.0000e+00 -1.0000e+00
       25  2    1    2    0    0 +0.0000000000e+00 +0.0000000000e+00 +4.5273644841e+01 1.3294624070e+02 1.2500000000e+02 0.0000e+00 0.0000e+00
      -15  1    3    3    0    0 +1.6707240144e+01 +1.9422152024e+01 +7.1531713094e+01 7.6001944512e+01 1.7770000000e+00 0.0000e+00 -1.0000e+00
       15  1    3    3    0    0 +1.0180190040e+01 +7.2206078380e+00 -5.2796917057e+00 1.3667710865e+01 1.7770000000e+00 0.0000e+00 -1.0000e+00
       22  1    3    3    0    0 -2.6887430184e+01 -2.6642759862e+01 -2.0978376546e+01 4.3276585326e+01 0.0000000000e+00 0.0000e+00 -1.0000e+00
<mgrwt>
<rscale>  2 0.12500000E+03</rscale>
<asrwt>0</asrwt>
<pdfrwt beam="1">  1       21 0.13104403E-01 0.12500000E+03</pdfrwt>
<pdfrwt beam="2">  1       21 0.64465144E-02 0.12500000E+03</pdfrwt>
<totfact> 0.87567601E+06</totfact>
</mgrwt>
</event>
<event>
 6      0 +9.8758382e+01 1.25000000e+02 7.54677100e-03 1.12640300e-01
       21 -1    0    0  502  501 +0.0000000000e+00 +0.0000000000e+00 +3.9174136948e+02 3.9174136948e+02 0.0000000000e+00 0.0000e+00 1.0000e+00
       21 -1    0    0  501  502 -0.0000000000e+00 -0.0000000000e+00 -9.9715023848e+00 9.9715023848e+00 0.0000000000e+00 0.0000e+00 1.0000e+00
       25  2    1    2    0    0 +0.0000000000e+00 +0.0000000000e+00 +3.8176986710e+02 4.0171287187e+02 1.2500000000e+02 0.0000e+00 0.0000e+00
      -15  1    3    3    0    0 -5.5290379325e+00 +6.9397281821e+00 +7.1360293806e+01 7.1931768703e+01 1.7770000000e+00 0.0000e+00 -1.0000e+00
       15  1    3    3    0    0 +1.6087895518e+01 +5.0388891898e+01 +1.5611642148e+02 1.6484342751e+02 1.7770000000e+00 0.0000e+00 -1.0000e+00
       22  1    3    3    0    0 -1.0558857586e+01 -5.7328620080e+01 +1.5429315181e+02 1.6493767565e+02 0.0000000000e+00 0.0000e+00 -1.0000e+00
<mgrwt>
<rscale>  2 0.12500000E+03</rscale>
<asrwt>0</asrwt>
<pdfrwt beam="1">  1       21 0.57609015E-01 0.12500000E+03</pdfrwt>
<pdfrwt beam="2">  1       21 0.14663977E-02 0.12500000E+03</pdfrwt>
<totfact> 0.53497997E+06</totfact>
</mgrwt>
</event>
<event>
 6      0 +9.8758382e+01 1.25000000e+02 7.54677100e-03 1.12640300e-01
       21 -1    0    0  502  501 +0.0000000000e+00 +0.0000000000e+00 +5.7488722770e+00 5.7488722770e+00 0.0000000000e+00 0.0000e+00 1.0000e+00
       21 -1    0    0  501  502 -0.0000000000e+00 -0.0000000000e+00 -6.7948108982e+02 6.7948108982e+02 0.0000000000e+00 0.0000e+00 1.0000e+00
       25  2    1    2    0    0 +0.0000000000e+00 +0.0000000000e+00 -6.7373221754e+02 6.8522996210e+02 1.2500000000e+02 0.0000e+00 0.0000e+00
      -15  1    3    3    0    0 -1.8760407389e+01 +3.7593751410e+01 -3.6352426238e+02 3.6594848011e+02 1.7770000000e+00 0.0000e+00 -1.0000e+00
       15  1    3    3    0    0 +3.9030412293e+01 -1.6959689298e+01 -2.3240610831e+02 2.3627687372e+02 1.7770000000e+00 0.0000e+00 -1.0000e+00
       22  1    3    3    0    0 -2.0270004904e+01 -2.0634062112e+01 -7.7801846670e+01 8.3004608084e+01 0.0000000000e+00 0.0000e+00 -1.0000e+00
<mgrwt>
<rscale>  2 0.12500000E+03</rscale>
<asrwt>0</asrwt>
<pdfrwt beam="1">  1       21 0.84542258E-03 0.12500000E+03</pdfrwt>
<pdfrwt beam="2">  1       21 0.99923668E-01 0.12500000E+03</pdfrwt>
<totfact> 0.33673213E+06</totfact>
</mgrwt>
</event>
<event>
 6      0 +9.8758382e+01 1.25000000e+02 7.54677100e-03 1.12640300e-01
       21 -1    0    0  502  501 +0.0000000000e+00 +0.0000000000e+00 +3.4293105962e+01 3.4293105962e+01 0.0000000000e+00 0.0000e+00 1.0000e+00
       21 -1    0    0  501  502 -0.0000000000e+00 -0.0000000000e+00 -1.1390773423e+02 1.1390773423e+02 0.0000000000e+00 0.0000e+00 1.0000e+00
       25  2    1    2    0    0 +0.0000000000e+00 +0.0000000000e+00 -7.9614628271e+01 1.4820084020e+02 1.2500000000e+02 0.0000e+00 0.0000e+00
      -15  1    3    3    0    0 +8.8359075038e+00 +2.6360788217e+01 -4.4112812643e+01 5.2173387710e+01 1.7770000000e+00 0.0000e+00 -1.0000e+00
       15  1    3    3    0    0 +2.0918930550e+01 -3.0722108669e+01 -5.0254514264e+01 6.2530980716e+01 1.7770000000e+00 0.0000e+00 -1.0000e+00
       22  1    3    3    0    0 -2.9754838054e+01 +4.3613204519e+00 +1.4752698640e+01 3.3496471767e+01 0.0000000000e+00 0.0000e+00 -1.0000e+00
<mgrwt>
<rscale>  2 0.12500000E+03</rscale>
<asrwt>0</asrwt>
<pdfrwt beam="1">  1       21 0.50431038E-02 0.12500000E+03</pdfrwt>
<pdfrwt beam="2">  1       21 0.16751137E-01 0.12500000E+03</pdfrwt>
<totfact> 0.84928450E+06</totfact>
</mgrwt>
</event>
<event>
 6      0 +9.8758382e+01 1.25000000e+02 7.54677100e-03 1.12640300e-01
       21 -1    0    0  502  501 +0.0000000000e+00 +0.0000000000e+00 +1.2942728629e+01 1.2942728629e+01 0.0000000000e+00 0.0000e+00 -1.0000e+00
       21 -1    0    0  501  502 -0.0000000000e+00 -0.0000000000e+00 -3.0181039191e+02 3.0181039191e+02 0.0000000000e+00 0.0000e+00 -1.0000e+00
       25  2    1    2    0    0 +0.0000000000e+00 +0.0000000000e+00 -2.8886766328e+02 3.1475312054e+02 1.2500000000e+02 0.0000e+00 0.0000e+00
      -15  1    3    3    0    0 +4.2320846768e+00 +1.7643607005e+01 -2.5651136195e+02 2.5715840245e+02 1.7770000000e+00 0.0000e+00 -1.0000e+00
       15  1    3    3    0    0 +6.0517323894e+00 -1.4070610579e+00 -3.7214065593e+01 3.7770990094e+01 1.7770000000e+00 0.0000e+00 -1.0000e+00
       22  1    3    3    0    0 -1.0283817066e+01 -1.6236545947e+01 +4.8577642717e+00 1.9823727993e+01 0.0000000000e+00 0.0000e+00 -1.0000e+00
<mgrwt>
<rscale>  2 0.12500000E+03</rscale>
<asrwt>0</asrwt>
<pdfrwt beam="1">  1       21 0.19033423E-02 0.12500000E+03</pdfrwt>
<pdfrwt beam="2">  1       21 0.44383883E-01 0.12500000E+03</pdfrwt>
<totfact> 0.62284628E+06</totfact>
</mgrwt>
</event>
<event>
 6      0 +9.8758382e+01 1.25000000e+02 7.54677100e-03 1.12640300e-01
       21 -1    0    0  502  501 +0.0000000000e+00 +0.0000000000e+00 +9.1122489851e+01 9.1122489851e+01 0.0000000000e+00 0.0000e+00 -1.0000e+00
       21 -1    0    0  501  502 -0.0000000000e+00 -0.0000000000e+00 -4.2868121870e+01 4.2868121870e+01 0.0000000000e+00 0.0000e+00 -1.0000e+00
       25  2    1    2    0    0 +0.0000000000e+00 +0.0000000000e+00 +4.8254367982e+01 1.3399061172e+02 1.2500000000e+02 0.0000e+00 0.0000e+00
      -15  1    3    3    0    0 -4.2257472543e+01 -5.5924110751e+00 +2.2947209908e+01 4.8442762296e+01 1.7770000000e+00 0.0000e+00 -1.0000e+00
       15  1    3    3    0    0 +3.2481036719e+01 +3.6238865640e+01 +2.1224843486e+01 5.3121792508e+01 1.7770000000e+00 0.0000e+00 -1.0000e+00
       22  1    3    3    0    0 +9.7764358243e+00 -3.0646454565e+01 +4.0823145886e+00 3.2426056917e+01 0.0000000000e+00 0.0000e+00 -1.0000e+00
<mgrwt>
<rscale>  2 0.12500000E+03</rscale>
<asrwt>0</asrwt>
<pdfrwt beam="1">  1       21 0.13400366E-01 0.12500000E+03</pdfrwt>
<pdfrwt beam="2">  1       21 0.63041356E-02 0.12500000E+03</pdfrwt>
<totfact> 0.87383011E+06</totfact>
</mgrwt>
</event>
<event>
 6      0 +9.8758382e+01 1.25000000e+02 7.54677100e-03 1.12640300e-01
       21 -1    0    0  502  501 +0.0000000000e+00 +0.0000000000e+00 +2.7475567389e+02 2.7475567389e+02 0.0000000000e+00 0.0000e+00 1.0000e+00
       21 -1    0    0  501  502 -0.0000000000e+00 -0.0000000000e+00 -1.4217176827e+01 1.4217176827e+01 0.0000000000e+00 0.0000e+00 1.0000e+00
       25  2    1    2    0    0 +0.0000000000e+00 +0.0000000000e+00 +2.6053849706e+02 2.8897285072e+02 1.2500000000e+02 0.0000e+00 0.0000e+00
      -15  1    3    3    0    0 +1.1857930133e+01 +8.7761873935e+00 +5.2337131760e+00 1.5753775891e+01 1.7770000000e+00 0.0000e+00 -1.0000e+00
       15  1    3    3    0    0 -2.1128814727e+01 +3.7420627654e+01 +7.1217863196e+01 8.3197788150e+01 1.7770000000e+00 0.0000e+00 -1.0000e+00
       22  1    3    3    0    0 +9.2708845946e+00 -4.6196815047e+01 +1.8408692066e+02 1.9002128665e+02 0.0000000000e+00 0.0000e+00 -1.0000e+00
<mgrwt>
<rscale>  2 0.12500000E+03</rscale>
<asrwt>0</asrwt>
<pdfrwt beam="1">  1       21 0.40405243E-01 0.12500000E+03</pdfrwt>
<pdfrwt beam="2">  1       21 0.20907615E-02 0.12500000E+03</pdfrwt>
<totfact> 0.65230135E+06</totfact>
</mgrwt>
</event>
<event>
 6      0 +9.8758382e+01 1.25000000e+02 7.54677100e-03 1.12640300e-01
       21 -1    0    0  502  501 +0.0000000000e+00 +0.0000000000e+00 +2.9272458062e+01 2.9272458062e+01 0.0000000000e+00 0.0000e+00 -1.0000e+00
       21 -1    0    0  501  502 -0.0000000000e+00 -0.0000000000e+00 -1.3344455022e+02 1.3344455022e+02 0.0000000000e+00 0.0000e+00 -1.0000e+00
       25  2    1    2    0    0 +0.0000000000e+00 +0.0000000000e+00 -1.0417209216e+02 1.6271700829e+02 1.2500000000e+02 0.0000e+00 0.0000e+00
      -15  1    3    3    0    0 -5.0578006908e+00 +7.2494790579e+00 -7.0114966899e+01 7.0692309389e+01 1.7770000000e+00 0.0000e+00 -1.0000e+00
       15  1    3    3    0    0 -1.0238409747e+01 +3.4790255881e+01 -3.0010528567e+01 4.7106013335e+01 1.7770000000e+00 0.0000e+00 -1.0000e+00
       22  1    3    3    0    0 +1.5296210438e+01 -4.2039734939e+01 -4.0465966886e+00 4.4918685558e+01 0.0000000000e+00 0.0000e+00 -1.0000e+00
<mgrwt>
<rscale>  2 0.12500000E+03</rscale>
<asrwt>0</asrwt>
<pdfrwt beam="1">  1       21 0.43047733E-02 0.12500000E+03</pdfrwt>
<pdfrwt beam="2">  1       21 0.19624198E-01 0.12500000E+03</pdfrwt>
<totfact> 0.82536775E+06</totfact>
</mgrwt>
</event>
<event>
 6      0 +9.8758382e+01 1.25000000e+02 7.54677100e-03 1.12640300e-01
       21 -1    0    0  502  501 +0.0000000000e+00 +0.0000000000e+00 +2.1581805364e+01 2.1581805364e+01 0.0000000000e+00 0.0000e+00 1.0000e+00
       21 -1    0    0  501  502 -0.0000000000e+00 -0.0000000000e+00 -1.8099736950e+02 1.8099736950e+02 0.0000000000e+00 0.0000e+00 1.0000e+00
       25  2    1    2    0    0 +0.0000000000e+00 +0.0000000000e+00 -1.5941556414e+02 2.0257917487e+02 1.2500000000e+02 0.0000e+00 0.0000e+00
      -15  1    3    3    0    0 -1.1335573675e+00 +5.3323286793e-01 +2.0340982495e+00 2.9773434947e+00 1.7770000000e+00 0.0000e+00 -1.0000e+00
       15  1    3    3    0    0 -1.4780006363e+01 +5.5845761173e+01 -9.3116350298e+01 1.0959475376e+02 1.7770000000e+00 0.0000e+00 -1.0000e+00
       22  1    3    3    0    0 +1.5913563730e+01 -5.6378994041e+01 -6.8333312088e+01 9.0007077614e+01 0.0000000000e+00 0.0000e+00 -1.0000e+00
<mgrwt>
<rscale>  2 0.12500000E+03</rscale>
<asrwt>0</asrwt>
<pdfrwt beam="1">  1       21 0.31737949E-02 0.12500000E+03</pdfrwt>
<pdfrwt beam="2">  1       21 0.26617260E-01 0.12500000E+03</pdfrwt>
<totfact> 0.76444242E+06</totfact>
</mgrwt>
</event>
<event>
 6      0 +9.8758382e+01 1.25000000e+02 7.54677100e-03 1.12640300e-01
       21 -1    0    0  502  501 +0.0000000000e+00 +0.0000000000e+00 +5.3143645069e+02 5.3143645069e+02 0.0000000000e+00 0.0000e+00 -1.0000e+00
       21 -1    0    0  501  502 -0.0000000000e+00 -0.0000000000e+00 -7.3503614494e+00 7.3503614494e+00 0.0000000000e+00 0.0000e+00 -1.0000e+00
       25  2    1    2    0    0 +0.0000000000e+00 +0.0000000000e+00 +5.2408608925e+02 5.3878681214e+02 1.2500000000e+02 0.0000e+00 0.0000e+00
      -15  1    3    3    0    0 -9.3724832906e-01 -1.1142906771e+01 +3.1951686361e+01 3.3898536783e+01 1.7770000000e+00 0.0000e+00 -1.0000e+00
       15  1    3    3    0    0 -4.1902142761e+01 -2.0334432935e+01 +1.1596759386e+02 1.2498367607e+02 1.7770000000e+00 0.0000e+00 -1.0000e+00
       22  1    3    3    0    0 +4.2839391090e+01 +3.1477339706e+01 +3.7616680919e+02 3.7990459945e+02 0.0000000000e+00 0.0000e+00 -1.0000e+00
<mgrwt>
<rscale>  2 0.12500000E+03</rscale>
<asrwt>0</asrwt>
<pdfrwt beam="1">  1       21 0.78152393E-01 0.12500000E+03</pdfrwt>
<pdfrwt beam="2">  1       21 0.10809359E-02 0.12500000E+03</pdfrwt>
<totfact> 0.42558059E+06</totfact>
</mgrwt>
</event>
<event>
 6      0 +9.8758382e+01 1.25000000e+02 7.54677100e-03 1.12640300e-01
       21 -1    0    0  502  501 +0.0000000000e+00 +0.0000000000e+00 +1.0940915355e+01 1.0940915355e+01 0.0000000000e+00 0.0000e+00 1.0000e+00
       21 -1    0    0  501  502 -0.0000000000e+00 -0.0000000000e+00 -3.5703137016e+02 3.5703137016e+02 0.0000000000e+00 0.0000e+00 1.0000e+00
       25  2    1    2    0    0 +0.0000000000e+00 +0.0000000000e+00 -3.4609045481e+02 3.6797228552e+02 1.2500000000e+02 0.0000e+00 0.0000e+00
      -15  1    3    3    0    0 -2.7145312912e+01 +3.3702289706e+00 -2.4606860499e+01 3.6835876112e+01 1.7770000000e+00 0.0000e+00 -1.0000e+00
       15  1    3    3    0    0 -8.9105247956e+00 +1.5541590211e+01 -1.9971788552e+01 2.6888074408e+01 1.7770000000e+00 0.0000e+00 -1.0000e+00
       22  1    3    3    0    0 +3.6055837707e+01 -1.8911819182e+01 -3.0151180576e+02 3.0424833500e+02 0.0000000000e+00 0.0000e+00 -1.0000e+00
<mgrwt>
<rscale>  2 0.12500000E+03</rscale>
<asrwt>0</asrwt>
<pdfrwt beam="1">  1       21 0.16089584E-02 0.12500000E+03</pdfrwt>
<pdfrwt beam="2">  1       21 0.52504605E-01 0.12500000E+03</pdfrwt>
<totfact> 0.56720301E+06</totfact>
</mgrwt>
</event>
<event>
 6      0 +9.8758382e+01 1.25000000e+02 7.54677100e-03 1.12640300e-01
       21 -1    0    0  502  501 +0.0000000000e+00 +0.0000000000e+00 +9.2306028151e+00 9.2306028151e+00 0.0000000000e+00 0.0000e+00 -1.0000e+00
       21 -1    0    0  501  502 -0.0000000000e+00 -0.0000000000e+00 -4.2318471266e+02 4.2318471266e+02 0.0000000000e+00 0.0000e+00 -1.0000e+00
       25  2    1    2    0    0 +0.0000000000e+00 +0.0000000000e+00 -4.1395410985e+02 4.3241531548e+02 1.2500000000e+02 0.0000e+00 0.0000e+00
      -15  1    3    3    0    0 -2.8935605260e+01 -1.7592476042e+01 -1.1900135667e+02 1.2373861598e+02 1.7770000000e+00 0.0000e+00 -1.0000e+00
       15  1    3    3    0    0 -2.1918747965e+01 +3.1081296778e+01 -1.1103252705e+02 1.1737912213e+02 1.7770000000e+00 0.0000e+00 -1.0000e+00
       22  1    3    3    0    0 +5.0854353225e+01 -1.3488820736e+01 -1.8392022613e+02 1.9129757737e+02 0.0000000000e+00 0.0000e+00 -1.0000e+00
<mgrwt>
<rscale>  2 0.12500000E+03</rscale>
<asrwt>0</asrwt>
<pdfrwt beam="1">  1       21 0.13574416E-02 0.12500000E+03</pdfrwt>
<pdfrwt beam="2">  1       21 0.62233045E-01 0.12500000E+03</pdfrwt>
<totfact> 0.50763879E+06</totfact>
</mgrwt>
</event>
<event>
 6      0 +9.8758382e+01 1.25000000e+02 7.54677100e-03 1.12640300e-01
       21 -1    0    0  502  501 +0.0000000000e+00 +0.0000000000e+00 +1.6262519193e+01 1.6262519193e+01 0.0000000000e+00 0.0000e+00 1.0000e+00
       21 -1    0    0  501  502 -0.0000000000e+00 -0.0000000000e+00 -2.4019956278e+02 2.4019956278e+02 0.0000000000e+00 0.0000e+00 1.0000e+00
       25  2    1    2    0    0 +0.0000000000e+00 +0.0000000000e+00 -2.2393704359e+02 2.5646208198e+02 1.2500000000e+02 0.0000e+00 0.0000e+00
      -15  1    3    3    0    0 +2.9185632589e+01 -4.7987712606e-01 -1.6090750412e+02 1.6354330938e+02 1.7770000000e+00 0.0000e+00 -1.0000e+00
       15  1    3    3    0    0 -1.6876742132e+01 -2.7480796466e+01 -5.0400153327e+01 5.9861104098e+01 1.7770000000e+00 0.0000e+00 -1.0000e+00
       22  1    3    3    0    0 -1.2308890457e+01 +2.7960673592e+01 -1.2629386135e+01 3.3057668493e+01 0.0000000000e+00 0.0000e+00 -1.0000e+00
<mgrwt>
<rscale>  2 0.12500000E+03</rscale>
<asrwt>0</asrwt>
<pdfrwt beam="1">  1       21 0.23915469E-02 0.12500000E+03</pdfrwt>
<pdfrwt beam="2">  1       21 0.35323466E-01 0.12500000E+03</pdfrwt>
<totfact> 0.69179624E+06</totfact>
</mgrwt>
</event>
<event>
 6      0 +9.8758382e+01 1.25000000e+02 7.54677100e-03 1.12640300e-01
       21 -1    0    0  502  501 +0.0000000000e+00 +0.0000000000e+00 +4.8867197580e+02 4.8867197580e+02 0.0000000000e+00 0.0000e+00 -1.0000e+00
       21 -1    0    0  501  502 -0.0000000000e+00 -0.0000000000e+00 -7.9936034670e+00 7.9936034670e+00 0.0000000000e+00 0.0000e+00 -1.0000e+00
       25  2    1    2    0    0 +0.0000000000e+00 +0.0000000000e+00 +4.8067837233e+02 4.9666557927e+02 1.2500000000e+02 0.0000e+00 0.0000e+00
      -15  1    3    3    0    0 -4.8215568174e+01 +2.4852175013e+01 +1.8986836643e+02 1.9747284856e+02 1.7770000000e+00 0.0000e+00 -1.0000e+00
       15  1    3    3    0    0 +5.8768347784e+00 -5.4935820235e+00 +5.0453089276e+00 9.6607195192e+00 1.7770000000e+00 0.0000e+00 -1.0000e+00
       22  1    3    3    0    0 +4.2338733396e+01 -1.9358592989e+01 +2.8576469688e+02 2.8953201110e+02 0.0000000000e+00 0.0000e+00 -1.0000e+00
<mgrwt>
<rscale>  2 0.12500000E+03</rscale>
<asrwt>0</asrwt>
<pdfrwt beam="1">  1       21 0.71863505E-01 0.12500000E+03</pdfrwt>
<pdfrwt beam="2">  1       21 0.11755303E-02 0.12500000E+03</pdfrwt>
<totfact> 0.45574998E+06</totfact>
</mgrwt>
</event>
<event>
 6      0 +9.8758382e+01 1.25000000e+02 7.54677100e-03 1.12640300e-01
       21 -1    0    0  502  501 +0.0000000000e+00 +0.0000000000e+00 +1.1196877348e+02 1.1196877348e+02 0.0000000000e+00 0.0000e+00 -1.0000e+00
       21 -1    0    0  501  502 -0.0000000000e+00 -0.0000000000e+00 -3.4886958913e+01 3.4886958913e+01 0.0000000000e+00 0.0000e+00 -1.0000e+00
       25  2    1    2    0    0 +0.0000000000e+00 +0.0000000000e+00 +7.7081814569e+01 1.4685573239e+02 1.2500000000e+02 0.0000e+00 0.0000e+00
      -15  1    3    3    0    0 +4.8933939350e+00 +9.8075401477e+00 +2.6637638278e+01 2.8859221229e+01 1.7770000000e+00 0.0000e+00 -1.0000e+00
       15  1    3    3    0    0 +3.8201321666e+01 -1.5676222218e+01 +6.0582383766e+01 7.3338038369e+01 1.7770000000e+00 0.0000e+00 -1.0000e+00
       22  1    3    3    0    0 -4.3094715601e+01 +5.8686820708e+00 -1.0138207472e+01 4.4658472798e+01 0.0000000000e+00 0.0000e+00 -1.0000e+00
<mgrwt>
<rscale>  2 0.12500000E+03</rscale>
<asrwt>0</asrwt>
<pdfrwt beam="1">  1       21 0.16465996E-01 0.12500000E+03</pdfrwt>
<pdfrwt beam="2">  1       21 0.51304351E-02 0.12500000E+03</pdfrwt>
<totfact> 0.85156715E+06</totfact>
</mgrwt>
</event>
<event>
 6      0 +9.8758382e+01 1.25000000e+02 7.54677100e-03 1.12640300e-01
       21 -1    0    0  502  501 +0.0000000000e+00 +0.0000000000e+00 +1.2508979122e+01 1.2508979122e+01 0.0000000000e+00 0.0000e+00 -1.0000e+00
       21 -1    0    0  501  502 -0.0000000000e+00 -0.0000000000e+00 -3.1227568308e+02 3.1227568308e+02 0.0000000000e+00 0.0000e+00 -1.0000e+00
       25  2    1    2    0    0 +0.0000000000e+00 +0.0000000000e+00 -2.9976670396e+02 3.2478466220e+02 1.2500000000e+02 0.0000e+00 0.0000e+00
      -15  1    3    3    0    0 +1.5915953142e+01 -4.6275741176e+00 -1.1811221620e+01 2.0430239641e+01 1.7770000000e+00 0.0000e+00 -1.0000e+00
       15  1    3    3    0    0 -2.5613042174e+01 -4.2111370064e+01 -1.1980912171e+02 1.2956380201e+02 1.7770000000e+00 0.0000e+00 -1.0000e+00
       22  1    3    3    0    0 +9.6970890320e+00 +4.6738944182e+01 -1.6814636066e+02 1.7479062058e+02 0.0000000000e+00 0.0000e+00 -1.0000e+00
<mgrwt>
<rscale>  2 0.12500000E+03</rscale>
<asrwt>0</asrwt>
<pdfrwt beam="1">  1       21 0.18395556E-02 0.12500000E+03</pdfrwt>
<pdfrwt beam="2">  1       21 0.45922897E-01 0.12500000E+03</pdfrwt>
<totfact> 0.61184972E+06</totfact>
</mgrwt>
</event>
<event>
 6      0 +9.8758382e+01 1.25000000e+02 7.54677100e-03 1.12640300e-01
       21 -1    0    0  502  501 +0.0000000000e+00 +0.0000000000e+00 +9.9215138815e+01 9.9215138815e+01 0.0000000000e+00 0.0000e+00 1.0000e+00
       21 -1    0    0  501  502 -0.0000000000e+00 -0.0000000000e+00 -3.9371511713e+01 3.9371511713e+01 0.0000000000e+00 0.0000e+00 1.0000e+00
       25  2    1    2    0    0 +0.0000000000e+00 +0.0000000000e+00 +5.9843627102e+01 1.3858665053e+02 1.2500000000e+02 0.0000e+00 0.0000e+00
      -15  1    3    3    0    0 -1.6927380473e+01 -8.4145176454e+00 -2.6764318324e+01 3.2815038949e+01 1.7770000000e+00 0.0000e+00 -1.0000e+00
       15  1    3    3    0    0 +3.4986434157e+01 +9.0969151986e+00 +3.2210496710e+01 4.8450781918e+01 1.7770000000e+00 0.0000e+00 -1.0000e+00
       22  1    3    3    0    0 -1.8059053684e+01 -6.8239755324e-01 +5.4397448715e+01 5.7320829661e+01 0.0000000000e+00 0.0000e+00 -1.0000e+00
<mgrwt>
<rscale>  2 0.12500000E+03</rscale>
<asrwt>0</asrwt>
<pdfrwt beam="1">  1       21 0.14590462E-01 0.12500000E+03</pdfrwt>
<pdfrwt beam="2">  1       21 0.57899282E-02 0.12500000E+03</pdfrwt>
<totfact> 0.86584275E+06</totfact>
</mgrwt>
</event>
<event>
 6      0 +9.8758382e+01 1.25000000e+02 7.54677100e-03 1.12640300e-01
       21 -1    0    0  502  501 +0.0000000000e+00 +0.0000000000e+00 +8.2377441311e+00 8.2377441311e+00 0.0000000000e+00 0.0000e+00 1.0000e+00
       21 -1    0    0  501  502 -0.0000000000e+00 -0.0000000000e+00 -4.7418928505e+02 4.7418928505e+02 0.0000000000e+00 0.0000e+00 1.0000e+00
       25  2    1    2    0    0 +0.0000000000e+00 +0.0000000000e+00 -4.6595154092e+02 4.8242702918e+02 1.2500000000e+02 0.0000e+00 0.0000e+00
      -15  1    3    3    0    0 -3.1998568251e+00 -3.3229329522e+01 -4.2122200466e+02 4.2254652094e+02 1.7770000000e+00 0.0000e+00 -1.0000e+00
       15  1    3    3    0    0 -1.2830680350e+00 +1.3322603902e+01 -3.4514089755e+01 3.7061005908e+01 1.7770000000e+00 0.0000e+00 -1.0000e+00
       22  1    3    3    0    0 +4.4829248601e+00 +1.9906725621e+01 -1.0215446544e+01 2.2819502367e+01 0.0000000000e+00 0.0000e+00 -1.0000e+00
<mgrwt>
<rscale>  2 0.12500000E+03</rscale>
<asrwt>0</asrwt>
<pdfrwt beam="1">  1       21 0.12114332E-02 0.12500000E+03</pdfrwt>
<pdfrwt beam="2">  1       21 0.69733706E-01 0.12500000E+03</pdfrwt>
<totfact> 0.46662494E+06</totfact>
</mgrwt>
</event>
<event>
 6      0 +9.8758382e+01 1.25000000e+02 7.54677100e-03 1.12640300e-01
       21 -1    0    0  502  501 +0.0000000000e+00 +0.0000000000e+00 +1.8612356479e+01 1.8612356479e+01 0.0000000000e+00 0.0000e+00 -1.0000e+00
       21 -1    0    0  501  502 -0.0000000000e+00 -0.0000000000e+00 -2.0987401592e+02 2.0987401592e+02 0.0000000000e+00 0.0000e+00 -1.0000e+00
       25  2    1    2    0    0 +0.0000000000e+00 +0.0000000000e+00 -1.9126165944e+02 2.2848637240e+02 1.2500000000e+02 0.0000e+00 0.0000e+00
      -15  1    3    3    0    0 -6.6046378490e+00 -1.2720917869e+01 -6.2741601317e+01 6.4382522919e+01 1.7770000000e+00 0.0000e+00 -1.0000e+00
       15  1    3    3    0    0 +4.5719871309e+01 +2.7013637221e+01 -4.0769480024e+01 6.6972766546e+01 1.7770000000e+00 0.0000e+00 -1.0000e+00
       22  1    3    3    0    0 -3.9115233460e+01 -1.4292719352e+01 -8.7750578094e+01 9.7131082929e+01 0.0000000000e+00 0.0000e+00 -1.0000e+00
<mgrwt>
<rscale>  2 0.12500000E+03</rscale>
<asrwt>0</asrwt>
<pdfrwt beam="1">  1       21 0.27371113E-02 0.12500000E+03</pdfrwt>
<pdfrwt beam="2">  1       21 0.30863825E-01 0.12500000E+03</pdfrwt>
<totfact> 0.72840876E+06</totfact>
</mgrwt>
</event>
<event>
 6      0 +9.8758382e+01 1.25000000e+02 7.54677100e-03 1.12640300e-01
       21 -1    0    0  502  501 +0.0000000000e+00 +0.0000000000e+00 +4.5044536902e+01 4.5044536902e+01 0.0000000000e+00 0.0000e+00 1.0000e+00
       21 -1    0    0  501  502 -0.0000000000e+00 -0.0000000000e+00 -8.6719728267e+01 8.6719728267e+01 0.0000000000e+00 0.0000e+00 1.0000e+00
       25  2    1    2    0    0 +0.0000000000e+00 +0.0000000000e+00 -4.1675191365e+01 1.3176426517e+02 1.2500000000e+02 0.0000e+00 0.0000e+00
      -15  1    3    3    0    0 +2.2540882683e+01 -3.5406551315e+01 -6.9573445565e+01 8.1273226373e+01 1.7770000000e+00 0.0000e+00 -1.0000e+00
       15  1    3    3    0    0 -2.2555084545e+01 +3.5422144878e+01 +2.7921102892e+01 5.0459943542e+01 1.7770000000e+00 0.0000e+00 -1.0000e+00
       22  1    3    3    0    0 +1.4201862042e-02 -1.5593562661e-02 -2.2848690767e-02 3.1095252880e-02 0.0000000000e+00 0.0000e+00 -1.0000e+00
<mgrwt>
<rscale>  2 0.12500000E+03</rscale>
<asrwt>0</asrwt>
<pdfrwt beam="1">  1       21 0.66241966E-02 0.12500000E+03</pdfrwt>
<pdfrwt beam="2">  1       21 0.12752901E-01 0.12500000E+03</pdfrwt>
<totfact> 0.87778452E+06</totfact>
</mgrwt>
</event>
<event>
 6      0 +9.8758382e+01 1.25000000e+02 7.54677100e-03 1.12640300e-01
       21 -1    0    0  502  501 +0.0000000000e+00 +0.0000000000e+00 +4.8864451474e+02 4.8864451474e+02 0.0000000000e+00 0.0000e+00 1.0000e+00
       21 -1    0    0  501  502 -0.0000000000e+00 -0.0000000000e+00 -7.9940526951e+00 7.9940526951e+00 0.0000000000e+00 0.0000e+00 1.0000e+00
       25  2    1    2    0    0 +0.0000000000e+00 +0.0000000000e+00 +4.8065046205e+02 4.9663856744e+02 1.2500000000e+02 0.0000e+00 0.0000e+00
      -15  1    3    3    0    0 +2.5720162800e+01 -6.5249052533e+00 +2.7652942705e+02 2.7780529678e+02 1.7770000000e+00 0.0000e+00 -1.0000e+00
       15  1    3    3    0    0 +1.9402024732e+01 +7.9619113593e+00 +1.3257094833e+02 1.3423131030e+02 1.7770000000e+00 0.0000e+00 -1.0000e+00
       22  1    3    3    0    0 -4.5122187531e+01 -1.4370061060e+00 +7.1550086670e+01 8.4601960358e+01 0.0000000000e+00 0.0000e+00 -1.0000e+00
<mgrwt>
<rscale>  2 0.12500000E+03</rscale>
<asrwt>0</asrwt>
<pdfrwt beam="1">  1       21 0.71859467E-01 0.12500000E+03</pdfrwt>
<pdfrwt beam="2">  1       21 0.11755963E-02 0.12500000E+03</pdfrwt>
<totfact> 0.45577024E+06</totfact>
</mgrwt>
</event>
<event>
 6      0 +9.8758382e+01 1.25000000e+02 7.54677100e-03 1.12640300e-01
       21 -1    0    0  502  501 +0.0000000000e+00 +0.0000000000e+00 +9.3645846973e+01 9.3645846973e+01 0.0000000000e+00 0.0000e+00 1.0000e+00
       21 -1    0    0  501  502 -0.0000000000e+00 -0.0000000000e+00 -4.1713008385e+01 4.1713008385e+01 0.0000000000e+00 0.0000e+00 1.0000e+00
       25  2    1    2    0    0 +0.0000000000e+00 +0.0000000000e+00 +5.1932838588e+01 1.3535885536e+02 1.2500000000e+02 0.0000e+00 0.0000e+00
      -15  1    3    3    0    0 -6.2924822626e+00 -4.7412390562e+01 -1.1526808306e+01 4.9229616599e+01 1.7770000000e+00 0.0000e+00 -1.0000e+00
       15  1    3    3    0    0 +1.7619095910e+01 +1.8699546161e+01 +3.9048966228e+01 4.6776971469e+01 1.7770000000e+00 0.0000e+00 -1.0000e+00
       22  1    3    3    0    0 -1.1326613647e+01 +2.8712844401e+01 +2.4410680665e+01 3.9352267289e+01 0.0000000000e+00 0.0000e+00 -1.0000e+00
<mgrwt>
<rscale>  2 0.12500000E+03</rscale>
<asrwt>0</asrwt>
<pdfrwt beam="1">  1       21 0.13771448E-01 0.12500000E+03</pdfrwt>
<pdfrwt beam="2">  1       21 0.61342659E-02 0.12500000E+03</pdfrwt>
<totfact> 0.87143194E+06</totfact>
</mgrwt>
</event>
<event>
 6      0 +9.8758382e+01 1.25000000e+02 7.54677100e-03 1.12640300e-01
       21 -1    0    0  502  501 +0.0000000000e+00 +0.0000000000e+00 +1.0680309433e+01 1.0680309433e+01 0.0000000000e+00 0.0000e+00 -1.0000e+00
       21 -1    0    0  501  502 -0.0000000000e+00 -0.0000000000e+00 -3.6574314859e+02 3.6574314859e+02 0.0000000000e+00 0.0000e+00 -1.0000e+00
       25  2    1    2    0    0 +0.0000000000e+00 +0.0000000000e+00 -3.5506283916e+02 3.7642345802e+02 1.2500000000e+02 0.0000e+00 0.0000e+00
      -15  1    3    3    0    0 +8.0582505587e+00 -7.8260707757e+00 -1.1683540035e+01 1.6304773001e+01 1.7770000000e+00 0.0000e+00 -1.0000e+00
       15  1    3    3    0    0 +2.2203021898e+01 -3.6271483573e+01 -7.3019886915e+01 8.4520153313e+01 1.7770000000e+00 0.0000e+00 -1.0000e+00
       22  1    3    3    0    0 -3.0261272457e+01 +4.4097554349e+01 -2.7035941226e+02 2.7559853176e+02 0.0000000000e+00 0.0000e+00 -1.0000e+00
<mgrwt>
<rscale>  2 0.12500000E+03</rscale>
<asrwt>0</asrwt>
<pdfrwt beam="1">  1       21 0.15706335E-02 0.12500000E+03</pdfrwt>
<pdfrwt beam="2">  1       21 0.53785764E-01 0.12500000E+03</pdfrwt>
<totfact> 0.55891331E+06</totfact>
</mgrwt>
</event>
<event>
 6      0 +9.8758382e+01 1.25000000e+02 7.54677100e-03 1.12640300e-01
       21 -1    0    0  502  501 +0.0000000000e+00 +0.0000000000e+00 +2.5976074579e+01 2.5976074579e+01 0.0000000000e+00 0.0000e+00 -1.0000e+00
       21 -1    0    0  501  502 -0.0000000000e+00 -0.0000000000e+00 -1.5037876443e+02 1.5037876443e+02 0.0000000000e+00 0.0000e+00 -1.0000e+00
       25  2    1    2    0    0 +0.0000000000e+00 +0.0000000000e+00 -1.2440268985e+02 1.7635483901e+02 1.2500000000e+02 0.0000e+00 0.0000e+00
      -15  1    3    3    0    0 +1.3480641318e+01 +7.7005507217e+00 -7.5731768519e+01 7.7327127606e+01 1.7770000000e+00 0.0000e+00 -1.0000e+00
       15  1    3    3    0    0 -3.7628122766e+01 +2.4430753758e+01 -3.3690399064e+01 5.6133217173e+01 1.7770000000e+00 0.0000e+00 -1.0000e+00
       22  1    3    3    0    0 +2.4147481448e+01 -3.2131304480e+01 -1.4980522265e+01 4.2894494229e+01 0.0000000000e+00 0.0000e+00 -1.0000e+00
<mgrwt>
<rscale>  2 0.12500000E+03</rscale>
<asrwt>0</asrwt>
<pdfrwt beam="1">  1       21 0.38200109E-02 0.12500000E+03</pdfrwt>
<pdfrwt beam="2">  1       21 0.22114525E-01 0.12500000E+03</pdfrwt>
<totfact> 0.80367731E+06</totfact>
</mgrwt>
</event>
<event>
 6      0 +9.8758382e+01 1.25000000e+02 7.54677100e-03 1.12640300e-01
       21 -1    0    0  502  501 +0.0000000000e+00 +0.0000000000e+00 +5.7082219737e+01 5.7082219737e+01 0.0000000000e+00 0.0000e+00 1.0000e+00
       21 -1    0    0  501  502 -0.0000000000e+00 -0.0000000000e+00 -6.8431991923e+01 6.8431991923e+01 0.0000000000e+00 0.0000e+00 1.0000e+00
       25  2    1    2    0    0 +0.0000000000e+00 +0.0000000000e+00 -1.1349772186e+01 1.2551421166e+02 1.2500000000e+02 0.0000e+00 0.0000e+00
      -15  1    3    3    0    0 +8.9316830587e+00 +2.6906520680e+00 +1.6781713793e+01 1.9282069848e+01 1.7770000000e+00 0.0000e+00 -1.0000e+00
       15  1    3    3    0    0 +1.8249110994e+01 +3.8179290679e+01 -3.7137420691e+01 5.6329690514e+01 1.7770000000e+00 0.0000e+00 -1.0000e+00
       22  1    3    3    0    0 -2.7180794053e+01 -4.0869942747e+01 +9.0059347118e+00 4.9902451298e+01 0.0000000000e+00 0.0000e+00 -1.0000e+00
<mgrwt>
<rscale>  2 0.12500000E+03</rscale>
<asrwt>0</asrwt>
<pdfrwt beam="1">  1       21 0.83944441E-02 0.12500000E+03</pdfrwt>
<pdfrwt beam="2">  1       21 0.10063528E-01 0.12500000E+03</pdfrwt>
<totfact> 0.88900784E+06</totfact>
</mgrwt>
</event>
<event>
 6      0 +9.8758382e+01 1.25000000e+02 7.54677100e-03 1.12640300e-01
       21 -1    0    0  502  501 +0.0000000000e+00 +0.0000000000e+00 +1.3236712389e+01 1.3236712389e+01 0.0000000000e+00 0.0000e+00 -1.0000e+00
       21 -1    0    0  501  502 -0.0000000000e+00 -0.0000000000e+00 -2.9510726571e+02 2.9510726571e+02 0.0000000000e+00 0.0000e+00 -1.0000e+00
       25  2    1    2    0    0 +0.0000000000e+00 +0.0000000000e+00 -2.8187055332e+02 3.0834397810e+02 1.2500000000e+02 0.0000e+00 0.0000e+00
      -15  1    3    3    0    0 +3.3912633565e+01 +9.2194689511e+00 -8.5404584102e+01 9.2369724681e+01 1.7770000000e+00 0.0000e+00 -1.0000e+00
       15  1    3    3    0    0 +6.3645556671e+00 +2.9944413210e+01 -9.7096419447e+01 1.0182361146e+02 1.7770000000e+00 0.0000e+00 -1.0000e+00
       22  1    3    3    0    0 -4.0277189232e+01 -3.9163882161e+01 -9.9369549753e+01 1.1415064194e+02 0.0000000000e+00 0.0000e+00 -1.0000e+00
<mgrwt>
<rscale>  2 0.12500000E+03</rscale>
<asrwt>0</asrwt>
<pdfrwt beam="1">  1       21 0.19465756E-02 0.12500000E+03</pdfrwt>
<pdfrwt beam="2">  1       21 0.43398123E-01 0.12500000E+03</pdfrwt>
<totfact> 0.63000920E+06</totfact>
</mgrwt>
</event>
<event>
 6      0 +9.8758382e+01 1.25000000e+02 7.54677100e-03 1.12640300e-01
       21 -1    0    0  502  501 +0.0000000000e+00 +0.0000000000e+00 +8.6865937373e+00 8.6865937373e+00 0.0000000000e+00 0.0000e+00 -1.0000e+00
       21 -1    0    0  501  502 -0.0000000000e+00 -0.0000000000e+00 -4.4968719824e+02 4.4968719824e+02 0.0000000000e+00 0.0000e+00 -1.0000e+00
       25  2    1    2    0    0 +0.0000000000e+00 +0.0000000000e+00 -4.4100060451e+02 4.5837379198e+02 1.2500000000e+02 0.0000e+00 0.0000e+00
      -15  1    3    3    0    0 -2.2774380273e+01 +6.4977742298e-01 -2.7192409055e+01 3.5520127346e+01 1.7770000000e+00 0.0000e+00 -1.0000e+00
       15  1    3    3    0    0 +1.9599335464e+00 +3.7001146177e+01 -2.7612487504e+02 2.7860551054e+02 1.7770000000e+00 0.0000e+00 -1.0000e+00
       22  1    3    3    0    0 +2.0814446726e+01 -3.7650923600e+01 -1.3768332047e+02 1.4424815415e+02 0.0000000000e+00 0.0000e+00 -1.0000e+00
<mgrwt>
<rscale>  2 0.12500000E+03</rscale>
<asrwt>0</asrwt>
<pdfrwt beam="1">  1       21 0.12774404E-02 0.12500000E+03</pdfrwt>
<pdfrwt beam="2">  1       21 0.66130462E-01 0.12500000E+03</pdfrwt>
<totfact> 0.48584841E+06</totfact>
</mgrwt>
</event>
<event>
 6      0 +9.8758382e+01 1.25000000e+02 7.54677100e-03 1.12640300e-01
       21 -1    0    0  502  501 +0.0000000000e+00 +0.0000000000e+00 +2.9310281251e+02 2.9310281251e+02 0.0000000000e+00 0.0000e+00 -1.0000e+00
       21 -1    0    0  501  502 -0.0000000000e+00 -0.0000000000e+00 -1.3327234790e+01 1.3327234790e+01 0.0000000000e+00 0.0000e+00 -1.0000e+00
       25  2    1    2    0    0 +0.0000000000e+00 +0.0000000000e+00 +2.7977557772e+02 3.0643004730e+02 1.2500000000e+02 0.0000e+00 0.0000e+00
      -15  1    3    3    0    0 -2.4404226363e+01 -6.8387220188e+00 +3.5541787932e+01 4.3688794921e+01 1.7770000000e+00 0.0000e+00 -1.0000e+00
       15  1    3    3    0    0 -2.1407398325e+01 -2.9322156234e+01 +6.8158363741e+01 7.7244972821e+01 1.7770000000e+00 0.0000e+00 -1.0000e+00
       22  1    3    3    0    0 +4.5811624688e+01 +3.6160878252e+01 +1.7607542605e+02 1.8549627956e+02 0.0000000000e+00 0.0000e+00 -1.0000e+00
<mgrwt>
<rscale>  2 0.12500000E+03</rscale>
<asrwt>0</asrwt>
<pdfrwt beam="1">  1       21 0.43103351E-01 0.12500000E+03</pdfrwt>
<pdfrwt beam="2">  1       21 0.19598876E-02 0.12500000E+03</pdfrwt>
<totfact> 0.63216957E+06</totfact>
</mgrwt>
</event>
<event>
 6      0 +9.8758382e+01 1.25000000e+02 7.54677100e-03 1.12640300e-01
       21 -1    0    0  502  501 +0.0000000000e+00 +0.0000000000e+00 +1.6311840620e+01 1.6311840620e+01 0.0000000000e+00 0.0000e+00 -1.0000e+00
       21 -1    0    0  501  502 -0.0000000000e+00 -0.0000000000e+00 -2.3947328147e+02 2.3947328147e+02 0.0000000000e+00 0.0000e+00 -1.0000e+00
       25  2    1    2    0    0 +0.0000000000e+00 +0.0000000000e+00 -2.2316144085e+02 2.5578512209e+02 1.2500000000e+02 0.0000e+00 0.0000e+00
      -15  1    3    3    0    0 -5.2377288522e+00 -1.0240245043e+01 -1.2735102243e+02 1.2788173077e+02 1.7770000000e+00 0.0000e+00 -1.0000e+00
       15  1    3    3    0    0 -2.2585365927e+01 +2.2843264851e+01 -5.5923132856e+00 3.2654941434e+01 1.7770000000e+00 0.0000e+00 -1.0000e+00
       22  1    3    3    0    0 +2.7823094780e+01 -1.2603019808e+01 -9.0218105134e+01 9.5248449884e+01 0.0000000000e+00 0.0000e+00 -1.0000e+00
<mgrwt>
<rscale>  2 0.12500000E+03</rscale>
<asrwt>0</asrwt>
<pdfrwt beam="1">  1       21 0.23988002E-02 0.12500000E+03</pdfrwt>
<pdfrwt beam="2">  1       21 0.35216657E-01 0.12500000E+03</pdfrwt>
<totfact> 0.69265236E+06</totfact>
</mgrwt>
</event>
<event>
 6      0 +9.8758382e+01 1.25000000e+02 7.54677100e-03 1.12640300e-01
       21 -1    0    0  502  501 +0.0000000000e+00 +0.0000000000e+00 +2.0861036909e+01 2.0861036909e+01 0.0000000000e+00 0.0000e+00 1.0000e+00
       21 -1    0    0  501  502 -0.0000000000e+00 -0.0000000000e+00 -1.8725099893e+02 1.8725099893e+02 0.0000000000e+00 0.0000e+00 1.0000e+00
       25  2    1    2    0    0 +0.0000000000e+00 +0.0000000000e+00 -1.6638996202e+02 2.0811203584e+02 1.2500000000e+02 0.0000e+00 0.0000e+00
      -15  1    3    3    0    0 +3.7484809211e+01 +2.3799822011e+00 -9.1026076123e+01 9.8486950913e+01 1.7770000000e+00 0.0000e+00 -1.0000e+00
       15  1    3    3    0    0 +1.1354740517e+01 -6.3680849149e+00 -5.5021051910e+01 5.6568158181e+01 1.7770000000e+00 0.0000e+00 -1.0000e+00
       22  1    3    3    0    0 -4.8839549728e+01 +3.9881027138e+00 -2.0342833984e+01 5.3056926742e+01 0.0000000000e+00 0.0000e+00 -1.0000e+00
<mgrwt>
<rscale>  2 0.12500000E+03</rscale>
<asrwt>0</asrwt>
<pdfrwt beam="1">  1       21 0.30677998E-02 0.12500000E+03</pdfrwt>
<pdfrwt beam="2">  1       21 0.27536909E-01 0.12500000E+03</pdfrwt>
<totfact> 0.75651576E+06</totfact>
</mgrwt>
</event>
<event>
 6      0 +9.8758382e+01 1.25000000e+02 7.54677100e-03 1.12640300e-01
       21 -1    0    0  502  501 +0.0000000000e+00 +0.0000000000e+00 +5.3684056004e+01 5.3684056004e+01 0.0000000000e+00 0.0000e+00 -1.0000e+00
       21 -1    0    0  501  502 -0.0000000000e+00 -0.0000000000e+00 -7.2763689832e+01 7.2763689832e+01 0.0000000000e+00 0.0000e+00 -1.0000e+00
       25  2    1    2    0    0 +0.0000000000e+00 +0.0000000000e+00 -1.9079633828e+01 1.2644774584e+02 1.2500000000e+02 0.0000e+00 0.0000e+00
      -15  1    3    3    0    0 +4.8295563984e+01 +2.1200524483e+00 +2.0593248533e+00 4.8418536438e+01 1.7770000000e+00 0.0000e+00 -1.0000e+00
       15  1    3    3    0    0 +1.2416260484e+01 +3.9526951128e+00 -8.6749879647e+00 1.5754379336e+01 1.7770000000e+00 0.0000e+00 -1.0000e+00
       22  1    3    3    0    0 -6.0711824469e+01 -6.0727475611e+00 -1.2463970716e+01 6.2274830062e+01 0.0000000000e+00 0.0000e+00 -1.0000e+00
<mgrwt>
<rscale>  2 0.12500000E+03</rscale>
<asrwt>0</asrwt>
<pdfrwt beam="1">  1       21 0.78947142E-02 0.12500000E+03</pdfrwt>
<pdfrwt beam="2">  1       21 0.10700543E-01 0.12500000E+03</pdfrwt>
<totfact> 0.88731402E+06</totfact>
</mgrwt>
</event>
<event>
 6      0 +9.8758382e+01 1.25000000e+02 7.54677100e-03 1.12640300e-01
       21 -1    0    0  502  501 +0.0000000000e+00 +0.0000000000e+00 +9.4845211400e+00 9.4845211400e+00 0.0000000000e+00 0.0000e+00 -1.0000e+00
       21 -1    0    0  501  502 -0.0000000000e+00 -0.0000000000e+00 -4.1185526843e+02 4.1185526843e+02 0.0000000000e+00 0.0000e+00 -1.0000e+00
       25  2    1    2    0    0 +0.0000000000e+00 +0.0000000000e+00 -4.0237074729e+02 4.2133978957e+02 1.2500000000e+02 0.0000e+00 0.0000e+00
      -15  1    3    3    0    0 +9.1274152693e+00 -4.4214567428e+00 -1.1069966024e+01 1.5118229592e+01 1.7770000000e+00 0.0000e+00 -1.0000e+00
       15  1    3    3    0    0 -1.3896506433e+01 -2.7524376799e+01 -2.8624039330e+01 4.2109352475e+01 1.7770000000e+00 0.0000e+00 -1.0000e+00
       22  1    3    3    0    0 +4.7690911640e+00 +3.1945833542e+01 -3.6267674193e+02 3.6411220750e+02 0.0000000000e+00 0.0000e+00 -1.0000e+00
<mgrwt>
<rscale>  2 0.12500000E+03</rscale>
<asrwt>0</asrwt>
<pdfrwt beam="1">  1       21 0.13947824E-02 0.12500000E+03</pdfrwt>
<pdfrwt beam="2">  1       21 0.60566956E-01 0.12500000E+03</pdfrwt>
<totfact> 0.51729597E+06</totfact>
</mgrwt>
</event>
<event>
 6      0 +9.8758382e+01 1.25000000e+02 7.54677100e-03 1.12640300e-01
       21 -1    0    0  502  501 +0.0000000000e+00 +0.0000000000e+00 +8.2863543528e+02 8.2863543528e+02 0.0000000000e+00 0.0000e+00 -1.0000e+00
       21 -1    0    0  501  502 -0.0000000000e+00 -0.0000000000e+00 -4.7140754953e+00 4.7140754953e+00 0.0000000000e+00 0.0000e+00 -1.0000e+00
       25  2    1    2    0    0 +0.0000000000e+00 +0.0000000000e+00 +8.2392135979e+02 8.3334951078e+02 1.2500000000e+02 0.0000e+00 0.0000e+00
      -15  1    3    3    0    0 +8.6171985952e+00 -2.8388876982e+01 +3.3450653273e+02 3.3582430319e+02 1.7770000000e+00 0.0000e+00 -1.0000e+00
       15  1    3    3    0    0 +2.5494320725e+01 -1.5813228435e+00 +3.4928366706e+02 3.5022092852e+02 1.7770000000e+00 0.0000e+00 -1.0000e+00
       22  1    3    3    0    0 -3.4111519321e+01 +2.9970199826e+01 +1.4013116003e+02 1.4730427909e+02 0.0000000000e+00 0.0000e+00 -1.0000e+00
<mgrwt>
<rscale>  2 0.12500000E+03</rscale>
<asrwt>0</asrwt>
<pdfrwt beam="1">  1       21 0.12185805E+00 0.12500000E+03</pdfrwt>
<pdfrwt beam="2">  1       21 0.69324697E-03 0.12500000E+03</pdfrwt>
<totfact> 0.26925251E+06</totfact>
</mgrwt>
</event>
<event>
 6      0 +9.8758382e+01 1.25000000e+02 7.54677100e-03 1.12640300e-01
       21 -1    0    0  502  501 +0.0000000000e+00 +0.0000000000e+00 +4.7963416627e+01 4.7963416627e+01 0.0000000000e+00 0.0000e+00 1.0000e+00
       21 -1    0    0  501  502 -0.0000000000e+00 -0.0000000000e+00 -8.1442279861e+01 8.1442279861e+01 0.0000000000e+00 0.0000e+00 1.0000e+00
       25  2    1    2    0    0 +0.0000000000e+00 +0.0000000000e+00 -3.3478863234e+01 1.2940569649e+02 1.2500000000e+02 0.0000e+00 0.0000e+00
      -15  1    3    3    0    0 +2.4457964642e+01 +1.3073875505e+01 -5.6410820532e+01 6.2884470716e+01 1.7770000000e+00 0.0000e+00 -1.0000e+00
       15  1    3    3    0    0 -2.8006859370e+01 +1.2764567268e+01 +2.5908811136e+01 4.0270865061e+01 1.7770000000e+00 0.0000e+00 -1.0000e+00
       22  1    3    3    0    0 +3.5488947275e+00 -2.5838442772e+01 -2.9768538377e+00 2.6250360711e+01 0.0000000000e+00 0.0000e+00 -1.0000e+00
<mgrwt>
<rscale>  2 0.12500000E+03</rscale>
<asrwt>0</asrwt>
<pdfrwt beam="1">  1       21 0.70534437E-02 0.12500000E+03</pdfrwt>
<pdfrwt beam="2">  1       21 0.11976806E-01 0.12500000E+03</pdfrwt>
<totfact> 0.88206048E+06</totfact>
</mgrwt>
</event>
<event>
 6      0 +9.8758382e+01 1.25000000e+02 7.54677100e-03 1.12640300e-01
       21 -1    0    0  502  501 +0.0000000000e+00 +0.0000000000e+00 +2.7189424294e+01 2.7189424294e+01 0.0000000000e+00 0.0000e+00 1.0000e+00
       21 -1    0    0  501  502 -0.0000000000e+00 -0.0000000000e+00 -1.4366799230e+02 1.4366799230e+02 0.0000000000e+00 0.0000e+00 1.0000e+00
       25  2    1    2    0    0 +0.0000000000e+00 +0.0000000000e+00 -1.1647856800e+02 1.7085741659e+02 1.2500000000e+02 0.0000e+00 0.0000e+00
      -15  1    3    3    0    0 -4.2311683963e+00 +4.7470060839e+01 -7.4464820854e+01 8.8427805219e+01 1.7770000000e+00 0.0000e+00 -1.0000e+00
       15  1    3    3    0    0 +1.9400129197e+01 -1.9065993924e+00 -1.5551385072e+00 1.9636097344e+01 1.7770000000e+00 0.0000e+00 -1.0000e+00
       22  1    3    3    0    0 -1.5168960800e+01 -4.5563461446e+01 -4.0458608636e+01 6.2793514024e+01 0.0000000000e+00 0.0000e+00 -1.0000e+00
<mgrwt>
<rscale>  2 0.12500000E+03</rscale>
<asrwt>0</asrwt>
<pdfrwt beam="1">  1       21 0.39984448E-02 0.12500000E+03</pdfrwt>
<pdfrwt beam="2">  1       21 0.21127646E-01 0.12500000E+03</pdfrwt>
<totfact> 0.81228331E+06</totfact>
</mgrwt>
</event>
<event>
 6      0 +9.8758382e+01 1.25000000e+02 7.54677100e-03 1.12640300e-01
       21 -1    0    0  502  501 +0.0000000000e+00 +0.0000000000e+00 +3.4964767083e+01 3.4964767083e+01 0.0000000000e+00 0.0000e+00 -1.0000e+00
       21 -1    0    0  501  502 -0.0000000000e+00 -0.0000000000e+00 -1.1171960593e+02 1.1171960593e+02 0.0000000000e+00 0.0000e+00 -1.0000e+00
       25  2    1    2    0    0 +0.0000000000e+00 +0.0000000000e+00 -7.6754838849e+01 1.4668437301e+02 1.2500000000e+02 0.0000e+00 0.0000e+00
      -15  1    3    3    0    0 +2.3110104956e+01 -7.2106064308e+00 +7.5529116972e-01 2.4285756935e+01 1.7770000000e+00 0.0000e+00 -1.0000e+00
       15  1    3    3    0    0 +1.1093292131e+01 +2.8512866789e+01 +4.5469275154e+00 3.0981881507e+01 1.7770000000e+00 0.0000e+00 -1.0000e+00
       22  1    3    3    0    0 -3.4203397087e+01 -2.1302260358e+01 -8.2057057538e+01 9.1416734575e+01 0.0000000000e+00 0.0000e+00 -1.0000e+00
<mgrwt>
<rscale>  2 0.12500000E+03</rscale>
<asrwt>0</asrwt>
<pdfrwt beam="1">  1       21 0.51418776E-02 0.12500000E+03</pdfrwt>
<pdfrwt beam="2">  1       21 0.16429354E-01 0.12500000E+03</pdfrwt>
<totfact> 0.85185906E+06</totfact>
</mgrwt>
</event>
<event>
 6      0 +9.8758382e+01 1.25000000e+02 7.54677100e-03 1.12640300e-01
       21 -1    0    0  502  501 +0.0000000000e+00 +0.0000000000e+00 +2.9861637549e+01 2.9861637549e+01 0.0000000000e+00 0.0000e+00 1.0000e+00
       21 -1    0    0  501  502 -0.0000000000e+00 -0.0000000000e+00 -1.3081164734e+02 1.3081164734e+02 0.0000000000e+00 0.0000e+00 1.0000e+00
       25  2    1    2    0    0 +0.0000000000e+00 +0.0000000000e+00 -1.0095000979e+02 1.6067328489e+02 1.2500000000e+02 0.0000e+00 0.0000e+00
      -15  1    3    3    0    0 +5.0721057611e+00 -2.5745251755e+01 -3.1095995890e+01 4.0726685775e+01 1.7770000000e+00 0.0000e+00 -1.0000e+00
       15  1    3    3    0    0 +1.9063226839e+01 -1.9020281565e+01 -6.3117408099e+01 6.8645048347e+01 1.7770000000e+00 0.0000e+00 -1.0000e+00
       22  1    3    3    0    0 -2.4135332600e+01 +4.4765533320e+01 -6.7366057982e+00 5.1301550765e+01 0.0000000000e+00 0.0000e+00 -1.0000e+00
<mgrwt>
<rscale>  2 0.12500000E+03</rscale>
<asrwt>0</asrwt>
<pdfrwt beam="1">  1       21 0.43914173E-02 0.12500000E+03</pdfrwt>
<pdfrwt beam="2">  1       21 0.19237007E-01 0.12500000E+03</pdfrwt>
<totfact> 0.82869069E+06</totfact>
</mgrwt>
</event>
<event>
 6      0 +9.8758382e+01 1.25000000e+02 7.54677100e-03 1.12640300e-01
       21 -1    0    0  502  501 +0.0000000000e+00 +0.0000000000e+00 +1.0627463760e+03 1.0627463760e+03 0.0000000000e+00 0.0000e+00 -1.0000e+00
       21 -1    0    0  501  502 -0.0000000000e+00 -0.0000000000e+00 -3.6756182739e+00 3.6756182739e+00 0.0000000000e+00 0.0000e+00 -1.0000e+00
       25  2    1    2    0    0 +0.0000000000e+00 +0.0000000000e+00 +1.0590707577e+03 1.0664219942e+03 1.2500000000e+02 0.0000e+00 0.0000e+00
      -15  1    3    3    0    0 +1.1404251630e+01 +3.2333823876e+01 +3.7760423475e+02 3.7916177148e+02 1.7770000000e+00 0.0000e+00 -1.0000e+00
       15  1    3    3    0    0 -6.4363318172e+00 -6.0157510468e+01 +4.3937186265e+02 4.4352130033e+02 1.7770000000e+00 0.0000e+00 -1.0000e+00
       22  1    3    3    0    0 -4.9679198127e+00 +2.7823686592e+01 +2.4209466375e+02 2.4373892586e+02 0.0000000000e+00 0.0000e+00 -1.0000e+00
<mgrwt>
<rscale>  2 0.12500000E+03</rscale>
<asrwt>0</asrwt>
<pdfrwt beam="1">  1       21 0.15628602E+00 0.12500000E+03</pdfrwt>
<pdfrwt beam="2">  1       21 0.54053284E-03 0.12500000E+03</pdfrwt>
<totfact> 0.19290898E+06</totfact>
</mgrwt>
</event>
<event>
 6      0 +9.8758382e+01 1.25000000e+02 7.54677100e-03 1.12640300e-01
       21 -1    0    0  502  501 +0.0000000000e+00 +0.0000000000e+00 +3.8857488161e+01 3.8857488161e+01 0.0000000000e+00 0.0000e+00 1.0000e+00
       21 -1    0    0  501  502 -0.0000000000e+00 -0.0000000000e+00 -1.0052759931e+02 1.0052759931e+02 0.0000000000e+00 0.0000e+00 1.0000e+00
       25  2    1    2    0    0 +0.0000000000e+00 +0.0000000000e+00 -6.1670111147e+01 1.3938508747e+02 1.2500000000e+02 0.0000e+00 0.0000e+00
      -15  1    3    3    0    0 -2.7281107858e+00 +2.9337656015e+01 -2.5445228522e+01 3.8971246226e+01 1.7770000000e+00 0.0000e+00 -1.0000e+00
       15  1    3    3    0    0 +1.0054605287e+01 -3.0108088622e+01 -6.4116419755e+01 7.1565809568e+01 1.7770000000e+00 0.0000e+00 -1.0000e+00
       22  1    3    3    0    0 -7.3264945015e+00 +7.7043260742e-01 +2.7891537130e+01 2.8848031676e+01 0.0000000000e+00 0.0000e+00 -1.0000e+00
<mgrwt>
<rscale>  2 0.12500000E+03</rscale>
<asrwt>0</asrwt>
<pdfrwt beam="1">  1       21 0.57143366E-02 0.12500000E+03</pdfrwt>
<pdfrwt beam="2">  1       21 0.14783470E-01 0.12500000E+03</pdfrwt>
<totfact> 0.86446553E+06</totfact>
</mgrwt>
</event>
<event>
 6      0 +9.8758382e+01 1.25000000e+02 7.54677100e-03 1.12640300e-01
       21 -1    0    0  502  501 +0.0000000000e+00 +0.0000000000e+00 +3.6634315011e+01 3.6634315011e+01 0.0000000000e+00 0.0000e+00 -1.0000e+00
       21 -1    0    0  501  502 -0.0000000000e+00 -0.0000000000e+00 -1.0662817085e+02 1.0662817085e+02 0.0000000000e+00 0.0000e+00 -1.0000e+00
       25  2    1    2    0    0 +0.0000000000e+00 +0.0000000000e+00 -6.9993855840e+01 1.4326248586e+02 1.2500000000e+02 0.0000e+00 0.0000e+00
      -15  1    3    3    0    0 -4.8222413034e+01 +1.5345349054e+01 -1.2142451293e+01 5.2071851405e+01 1.7770000000e+00 0.0000e+00 -1.0000e+00
       15  1    3    3    0    0 +2.7436983935e+01 -1.3990939351e+01 -6.2633994300e+01 6.9819119462e+01 1.7770000000e+00 0.0000e+00 -1.0000e+00
       22  1    3    3    0    0 +2.0785429098e+01 -1.3544097031e+00 +4.7825897534e+00 2.1371514995e+01 0.0000000000e+00 0.0000e+00 -1.0000e+00
<mgrwt>
<rscale>  2 0.12500000E+03</rscale>
<asrwt>0</asrwt>
<pdfrwt beam="1">  1       21 0.53873994E-02 0.12500000E+03</pdfrwt>
<pdfrwt beam="2">  1       21 0.15680613E-01 0.12500000E+03</pdfrwt>
<totfact> 0.85774564E+06</totfact>
</mgrwt>
</event>
<event>
 6      0 +9.8758382e+01 1.25000000e+02 7.54677100e-03 1.12640300e-01
       21 -1    0    0  502  501 +0.0000000000e+00 +0.0000000000e+00 +1.4965203303e+02 1.4965203303e+02 0.0000000000e+00 0.0000e+00 1.0000e+00
       21 -1    0    0  501  502 -0.0000000000e+00 -0.0000000000e+00 -2.6102218064e+01 2.6102218064e+01 0.0000000000e+00 0.0000e+00 1.0000e+00
       25  2    1    2    0    0 +0.0000000000e+00 +0.0000000000e+00 +1.2354981497e+02 1.7575425110e+02 1.2500000000e+02 0.0000e+00 0.0000e+00
      -15  1    3    3    0    0 +2.6718987753e+00 +2.8707050594e+01 +8.7809271645e+00 3.0190995475e+01 1.7770000000e+00 0.0000e+00 -1.0000e+00
       15  1    3    3    0    0 -2.6422399625e+01 +1.3468065228e+01 +8.1722048697e+01 8.6955062849e+01 1.7770000000e+00 0.0000e+00 -1.0000e+00
       22  1    3    3    0    0 +2.3750500850e+01 -4.2175115822e+01 +3.3046839106e+01 5.8608192773e+01 0.0000000000e+00 0.0000e+00 -1.0000e+00
<mgrwt>
<rscale>  2 0.12500000E+03</rscale>
<asrwt>0</asrwt>
<pdfrwt beam="1">  1       21 0.22007652E-01 0.12500000E+03</pdfrwt>
<pdfrwt beam="2">  1       21 0.38385615E-02 0.12500000E+03</pdfrwt>
<totfact> 0.80460903E+06</totfact>
</mgrwt>
</event>
<event>
 6      0 +9.8758382e+01 1.25000000e+02 7.54677100e-03 1.12640300e-01
       21 -1    0    0  502  501 +0.0000000000e+00 +0.0000000000e+00 +2.3103936373e+02 2.3103936373e+02 0.0000000000e+00 0.0000e+00 1.0000e+00
       21 -1    0    0  501  502 -0.0000000000e+00 -0.0000000000e+00 -1.6907292060e+01 1.6907292060e+01 0.0000000000e+00 0.0000e+00 1.0000e+00
       25  2    1    2    0    0 +0.0000000000e+00 +0.0000000000e+00 +2.1413207167e+02 2.4794665579e+02 1.2500000000e+02 0.0000e+00 0.0000e+00
      -15  1    3    3    0    0 -4.2670991471e+01 +1.4856878596e+01 +7.8113321231e+01 9.0257348939e+01 1.7770000000e+00 0.0000e+00 -1.0000e+00
       15  1    3    3    0    0 -1.7535289207e+01 -7.2990813323e+00 +3.0895557988e+01 3.6310552024e+01 1.7770000000e+00 0.0000e+00 -1.0000e+00
       22  1    3    3    0    0 +6.0206280678e+01 -7.5577972636e+00 +1.0512319245e+02 1.2137875483e+02 0.0000000000e+00 0.0000e+00 -1.0000e+00
<mgrwt>
<rscale>  2 0.12500000E+03</rscale>
<asrwt>0</asrwt>
<pdfrwt beam="1">  1       21 0.33976375E-01 0.12500000E+03</pdfrwt>
<pdfrwt beam="2">  1       21 0.24863666E-02 0.12500000E+03</pdfrwt>
<totfact> 0.70267854E+06</totfact>
</mgrwt>
</event>
<event>
 6      0 +9.8758382e+01 1.25000000e+02 7.54677100e-03 1.12640300e-01
       21 -1    0    0  502  501 +0.0000000000e+00 +0.0000000000e+00 +9.0984259742e+01 9.0984259742e+01 0.0000000000e+00 0.0000e+00 -1.0000e+00
       21 -1    0    0  501  502 -0.0000000000e+00 -0.0000000000e+00 -4.2933250334e+01 4.2933250334e+01 0.0000000000e+00 0.0000e+00 -1.0000e+00
       25  2    1    2    0    0 +0.0000000000e+00 +0.0000000000e+00 +4.8051009408e+01 1.3391751008e+02 1.2500000000e+02 0.0000e+00 0.0000e+00
      -15  1    3    3    0    0 +1.4241661070e+00 -2.9072139439e+01 -1.2054828365e+01 3.1554621794e+01 1.7770000000e+00 0.0000e+00 -1.0000e+00
       15  1    3    3    0    0 +8.0660248251e+00 -1.7305859828e+01 +5.0555600354e+01 5.4070139606e+01 1.7770000000e+00 0.0000e+00 -1.0000e+00
       22  1    3    3    0    0 -9.4901909321e+00 +4.6377999267e+01 +9.5502374180e+00 4.8292748676e+01 0.0000000000e+00 0.0000e+00 -1.0000e+00
<mgrwt>
<rscale>  2 0.12500000E+03</rscale>
<asrwt>0</asrwt>
<pdfrwt beam="1">  1       21 0.13380038E-01 0.12500000E+03</pdfrwt>
<pdfrwt beam="2">  1       21 0.63137133E-02 0.12500000E+03</pdfrwt>
<totfact> 0.87395885E+06</totfact>
</mgrwt>
</event>
<event>
 6      0 +9.8758382e+01 1.25000000e+02 7.54677100e-03 1.12640300e-01
       21 -1    0    0  502  501 +0.0000000000e+00 +0.0000000000e+00 +1.3609216499e+01 1.3609216499e+01 0.0000000000e+00 0.0000e+00 -1.0000e+00
       21 -1    0    0  501  502 -0.0000000000e+00 -0.0000000000e+00 -2.8702974932e+02 2.8702974932e+02 0.0000000000e+00 0.0000e+00 -1.0000e+00
       25  2    1    2    0    0 +0.0000000000e+00 +0.0000000000e+00 -2.7342053282e+02 3.0063896582e+02 1.2500000000e+02 0.0000e+00 0.0000e+00
      -15  1    3    3    0    0 +1.1953682898e+01 +2.4509568828e+01 -2.9324831938e+01 4.0083824619e+01 1.7770000000e+00 0.0000e+00 -1.0000e+00
       15  1    3    3    0    0 +3.0276449606e+01 -1.3584360234e+01 -4.0745205445e+01 5.2578776511e+01 1.7770000000e+00 0.0000e+00 -1.0000e+00
       22  1    3    3    0    0 -4.2230132503e+01 -1.0925208593e+01 -2.0335049542e+02 2.0797636467e+02 0.0000000000e+00 0.0000e+00 -1.0000e+00
<mgrwt>
<rscale>  2 0.12500000E+03</rscale>
<asrwt>0</asrwt>
<pdfrwt beam="1">  1       21 0.20013556E-02 0.12500000E+03</pdfrwt>
<pdfrwt beam="2">  1       21 0.42210253E-01 0.12500000E+03</pdfrwt>
<totfact> 0.63876753E+06</totfact>
</mgrwt>
</event>
<event>
 6      0 +9.8758382e+01 1.25000000e+02 7.54677100e-03 1.12640300e-01
       21 -1    0    0  502  501 +0.0000000000e+00 +0.0000000000e+00 +2.1064725659e+02 2.1064725659e+02 0.0000000000e+00 0.0000e+00 1.0000e+00
       21 -1    0    0  501  502 -0.0000000000e+00 -0.0000000000e+00 -1.8544034531e+01 1.8544034531e+01 0.0000000000e+00 0.0000e+00 1.0000e+00
       25  2    1    2    0    0 +0.0000000000e+00 +0.0000000000e+00 +1.9210322206e+02 2.2919129112e+02 1.2500000000e+02 0.0000e+00 0.0000e+00
      -15  1    3    3    0    0 -7.5935140462e+00 -2.1894499829e+00 -1.2833872298e+01 1.5176335328e+01 1.7770000000e+00 0.0000e+00 -1.0000e+00
       15  1    3    3    0    0 +2.6806416654e-02 +2.1586978668e+01 +2.5865342332e+01 3.3736805265e+01 1.7770000000e+00 0.0000e+00 -1.0000e+00
       22  1    3    3    0    0 +7.5667076296e+00 -1.9397528685e+01 +1.7907175203e+02 1.8027815053e+02 0.0000000000e+00 0.0000e+00 -1.0000e+00
<mgrwt>
<rscale>  2 0.12500000E+03</rscale>
<asrwt>0</asrwt>
<pdfrwt beam="1">  1       21 0.30977536E-01 0.12500000E+03</pdfrwt>
<pdfrwt beam="2">  1       21 0.27270640E-02 0.12500000E+03</pdfrwt>
<totfact> 0.72746078E+06</totfact>
</mgrwt>
</event>
<event>
 6      0 +9.8758382e+01 1.25000000e+02 7.54677100e-03 1.12640300e-01
       21 -1    0    0  502  501 +0.0000000000e+00 +0.0000000000e+00 +9.4356140197e+01 9.4356140197e+01 0.0000000000e+00 0.0000e+00 -1.0000e+00
       21 -1    0    0  501  502 -0.0000000000e+00 -0.0000000000e+00 -4.1399001611e+01 4.1399001611e+01 0.0000000000e+00 0.0000e+00 -1.0000e+00
       25  2    1    2    0    0 +0.0000000000e+00 +0.0000000000e+00 +5.2957138586e+01 1.3575514181e+02 1.2500000000e+02 0.0000e+00 0.0000e+00
      -15  1    3    3    0    0 +1.4295763893e+01 +4.6446514015e+01 +1.6379005670e+01 5.1313517568e+01 1.7770000000e+00 0.0000e+00 -1.0000e+00
       15  1    3    3    0    0 +2.0857558202e+01 -5.5519615617e+00 +1.5067736837e+01 2.6382881452e+01 1.7770000000e+00 0.0000e+00 -1.0000e+00
       22  1    3    3    0    0 -3.5153322095e+01 -4.0894552453e+01 +2.1510396077e+01 5.8058742787e+01 0.0000000000e+00 0.0000e+00 -1.0000e+00
<mgrwt>
<rscale>  2 0.12500000E+03</rscale>
<asrwt>0</asrwt>
<pdfrwt beam="1">  1       21 0.13875903E-01 0.12500000E+03</pdfrwt>
<pdfrwt beam="2">  1       21 0.60880885E-02 0.12500000E+03</pdfrwt>
<totfact> 0.87074105E+06</totfact>
</mgrwt>
</event>
<event>
 6      0 +9.8758382e+01 1.25000000e+02 7.54677100e-03 1.12640300e-01
       21 -1    0    0  502  501 +0.0000000000e+00 +0.0000000000e+00 +3.9136663352e+01 3.9136663352e+01 0.0000000000e+00 0.0000e+00 -1.0000e+00
       21 -1    0    0  501  502 -0.0000000000e+00 -0.0000000000e+00 -9.9810501598e+01 9.9810501598e+01 0.0000000000e+00 0.0000e+00 -1.0000e+00
       25  2    1    2    0    0 +0.0000000000e+00 +0.0000000000e+00 -6.0673838247e+01 1.3894716495e+02 1.2500000000e+02 0.0000e+00 0.0000e+00
      -15  1    3    3    0    0 -2.4874159463e+01 +1.9249677400e+01 -1.6680259336e+01 3.5646355627e+01 1.7770000000e+00 0.0000e+00 -1.0000e+00
       15  1    3    3    0    0 +1.3470151492e+00 -2.3958018047e-01 -6.5909846311e+01 6.5947990252e+01 1.7770000000e+00 0.0000e+00 -1.0000e+00
       22  1    3    3    0    0 +2.3527144313e+01 -1.9010097220e+01 +2.1916267400e+01 3.7352819071e+01 0.0000000000e+00 0.0000e+00 -1.0000e+00
<mgrwt>
<rscale>  2 0.12500000E+03</rscale>
<asrwt>0</asrwt>
<pdfrwt beam="1">  1       21 0.57553918E-02 0.12500000E+03</pdfrwt>
<pdfrwt beam="2">  1       21 0.14678015E-01 0.12500000E+03</pdfrwt>
<totfact> 0.86522124E+06</totfact>
</mgrwt>
</event>
<event>
 6      0 +9.8758382e+01 1.25000000e+02 7.54677100e-03 1.12640300e-01
       21 -1    0    0  502  501 +0.0000000000e+00 +0.0000000000e+00 +2.4087364504e+02 2.4087364504e+02 0.0000000000e+00 0.0000e+00 1.0000e+00
       21 -1    0    0  501  502 -0.0000000000e+00 -0.0000000000e+00 -1.6217008712e+01 1.6217008712e+01 0.0000000000e+00 0.0000e+00 1.0000e+00
       25  2    1    2    0    0 +0.0000000000e+00 +0.0000000000e+00 +2.2465663632e+02 2.5709065375e+02 1.2500000000e+02 0.0000e+00 0.0000e+00
      -15  1    3    3    0    0 +1.1840775645e+01 +1.7906398412e+01 +6.5465552353e+01 6.8918352750e+01 1.7770000000e+00 0.0000e+00 -1.0000e+00
       15  1    3    3    0    0 -6.0146220195e+00 +2.5761484219e+01 +3.9565036463e+00 2.6807487709e+01 1.7770000000e+00 0.0000e+00 -1.0000e+00
       22  1    3    3    0    0 -5.8261536252e+00 -4.3667882631e+01 +1.5523458030e+02 1.6136481327e+02 0.0000000000e+00 0.0000e+00 -1.0000e+00
<mgrwt>
<rscale>  2 0.12500000E+03</rscale>
<asrwt>0</asrwt>
<pdfrwt beam="1">  1       21 0.35422593E-01 0.12500000E+03</pdfrwt>
<pdfrwt beam="2">  1       21 0.23848544E-02 0.12500000E+03</pdfrwt>
<totfact> 0.69100273E+06</totfact>
</mgrwt>
</event>
<event>
 6      0 +9.8758382e+01 1.25000000e+02 7.54677100e-03 1.12640300e-01
       21 -1    0    0  502  501 +0.0000000000e+00 +0.0000000000e+00 +1.7094775786e+00 1.7094775786e+00 0.0000000000e+00 0.0000e+00 -1.0000e+00
       21 -1    0    0  501  502 -0.0000000000e+00 -0.0000000000e+00 -2.2850548314e+03 2.2850548314e+03 0.0000000000e+00 0.0000e+00 -1.0000e+00
       25  2    1    2    0    0 +0.0000000000e+00 +0.0000000000e+00 -2.2833453538e+03 2.2867643089e+03 1.2500000000e+02 0.0000e+00 0.0000e+00
      -15  1    3    3    0    0 +4.6084013600e+00 -1.0568022863e+01 -5.8379576936e+01 5.9533630854e+01 1.7770000000e+00 0.0000e+00 -1.0000e+00
       15  1    3    3    0    0 -7.2284664872e+00 -4.4439495236e+01 -9.1780308504e+02 9.1890847211e+02 1.7770000000e+00 0.0000e+00 -1.0000e+00
       22  1    3    3    0    0 +2.6200651272e+00 +5.5007518099e+01 -1.3071627109e+03 1.3083222251e+03 0.0000000000e+00 0.0000e+00 -1.0000e+00
<mgrwt>
<rscale>  2 0.12500000E+03</rscale>
<asrwt>0</asrwt>
<pdfrwt beam="1">  1       21 0.25139543E-03 0.12500000E+03</pdfrwt>
<pdfrwt beam="2">  1       21 0.33603524E+00 0.12500000E+03</pdfrwt>
<totfact> 0.36722058E+05</totfact>
</mgrwt>
</event>
<event>
 6      0 +9.8758382e+01 1.25000000e+02 7.54677100e-03 1.12640300e-01
       21 -1    0    0  502  501 +0.0000000000e+00 +0.0000000000e+00 +5.0080284728e+02 5.0080284728e+02 0.0000000000e+00 0.0000e+00 -1.0000e+00
       21 -1    0    0  501  502 -0.0000000000e+00 -0.0000000000e+00 -7.7999756215e+00 7.7999756215e+00 0.0000000000e+00 0.0000e+00 -1.0000e+00
       25  2    1    2    0    0 +0.0000000000e+00 +0.0000000000e+00 +4.9300287166e+02 5.0860282290e+02 1.2500000000e+02 0.0000e+00 0.0000e+00
      -15  1    3    3    0    0 +3.3339342311e+01 +6.7069401984e+00 +2.6977966392e+02 2.7192042878e+02 1.7770000000e+00 0.0000e+00 -1.0000e+00
       15  1    3    3    0    0 -1.7447533784e+01 -2.9014777449e+01 +4.4869871537e+01 5.6238215178e+01 1.7770000000e+00 0.0000e+00 -1.0000e+00
       22  1    3    3    0    0 -1.5891808527e+01 +2.2307837251e+01 +1.7835333625e+02 1.8044417899e+02 0.0000000000e+00 0.0000e+00 -1.0000e+00
<mgrwt>
<rscale>  2 0.12500000E+03</rscale>
<asrwt>0</asrwt>
<pdfrwt beam="1">  1       21 0.73647456E-01 0.12500000E+03</pdfrwt>
<pdfrwt beam="2">  1       21 0.11470556E-02 0.12500000E+03</pdfrwt>
<totfact> 0.44692256E+06</totfact>
</mgrwt>
</event>
<event>
 6      0 +9.8758382e+01 1.25000000e+02 7.54677100e-03 1.12640300e-01
       21 -1    0    0  502  501 +0.0000000000e+00 +0.0000000000e+00 +2.0175454827e+02 2.0175454827e+02 0.0000000000e+00 0.0000e+00 -1.0000e+00
       21 -1    0    0  501  502 -0.0000000000e+00 -0.0000000000e+00 -1.9361397467e+01 1.9361397467e+01 0.0000000000e+00 0.0000e+00 -1.0000e+00
       25  2    1    2    0    0 +0.0000000000e+00 +0.0000000000e+00 +1.8239315081e+02 2.2111594574e+02 1.2500000000e+02 0.0000e+00 0.0000e+00
      -15  1    3    3    0    0 -4.1213978240e+01 +4.0415822493e+00 +7.0727842901e+01 8.1978728216e+01 1.7770000000e+00 0.0000e+00 -1.0000e+00
       15  1    3    3    0    0 +1.4631770027e+01 -3.0783649355e+01 +8.8574087404e+01 9.4922328513e+01 1.7770000000e+00 0.0000e+00 -1.0000e+00
       22  1    3    3    0    0 +2.6582208213e+01 +2.6742067105e+01 +2.3091220515e+01 4.4214889024e+01 0.0000000000e+00 0.0000e+00 -1.0000e+00
<mgrwt>
<rscale>  2 0.12500000E+03</rscale>
<asrwt>0</asrwt>
<pdfrwt beam="1">  1       21 0.29669785E-01 0.12500000E+03</pdfrwt>
<pdfrwt beam="2">  1       21 0.28472644E-02 0.12500000E+03</pdfrwt>
<totfact> 0.73840337E+06</totfact>
</mgrwt>
</event>
<event>
 6      0 +9.8758382e+01 1.25000000e+02 7.54677100e-03 1.12640300e-01
       21 -1    0    0  502  501 +0.0000000000e+00 +0.0000000000e+00 +2.7580470833e+02 2.7580470833e+02 0.0000000000e+00 0.0000e+00 -1.0000e+00
       21 -1    0    0  501  502 -0.0000000000e+00 -0.0000000000e+00 -1.4163101216e+01 1.4163101216e+01 0.0000000000e+00 0.0000e+00 -1.0000e+00
       25  2    1    2    0    0 +0.0000000000e+00 +0.0000000000e+00 +2.6164160712e+02 2.8996780955e+02 1.2500000000e+02 0.0000e+00 0.0000e+00
      -15  1    3    3    0    0 -2.2679030119e+01 -1.4402156695e+01 +3.7211595188e+01 4.5930611471e+01 1.7770000000e+00 0.0000e+00 -1.0000e+00
       15  1    3    3    0    0 -2.2348267685e+01 -7.9154481084e+00 +1.3789321419e+01 2.7484586617e+01 1.7770000000e+00 0.0000e+00 -1.0000e+00
       22  1    3    3    0    0 +4.5027297805e+01 +2.2317604803e+01 +2.1064069052e+02 2.1655261147e+02 0.0000000000e+00 0.0000e+00 -1.0000e+00
<mgrwt>
<rscale>  2 0.12500000E+03</rscale>
<asrwt>0</asrwt>
<pdfrwt beam="1">  1       21 0.40559513E-01 0.12500000E+03</pdfrwt>
<pdfrwt beam="2">  1       21 0.20828092E-02 0.12500000E+03</pdfrwt>
<totfact> 0.65113573E+06</totfact>
</mgrwt>
</event>
<event>
 6      0 +9.8758382e+01 1.25000000e+02 7.54677100e-03 1.12640300e-01
       21 -1    0    0  502  501 +0.0000000000e+00 +0.0000000000e+00 +6.3484035219e+01 6.3484035219e+01 0.0000000000e+00 0.0000e+00 -1.0000e+00
       21 -1    0    0  501  502 -0.0000000000e+00 -0.0000000000e+00 -6.1531217833e+01 6.1531217833e+01 0.0000000000e+00 0.0000e+00 -1.0000e+00
       25  2    1    2    0    0 +0.0000000000e+00 +0.0000000000e+00 +1.9528173865e+00 1.2501525305e+02 1.2500000000e+02 0.0000e+00 0.0000e+00
      -15  1    3    3    0    0 +3.2203303345e+00 -3.0407598870e+01 -1.6985946508e+01 3.5023887623e+01 1.7770000000e+00 0.0000e+00 -1.0000e+00
       15  1    3    3    0    0 +1.5569454143e+01 -1.5251647285e+01 -1.8004745721e+01 2.8325769975e+01 1.7770000000e+00 0.0000e+00 -1.0000e+00
       22  1    3    3    0    0 -1.8789784477e+01 +4.5659246154e+01 +3.6943509615e+01 6.1665595455e+01 0.0000000000e+00 0.0000e+00 -1.0000e+00
<mgrwt>
<rscale>  2 0.12500000E+03</rscale>
<asrwt>0</asrwt>
<pdfrwt beam="1">  1       21 0.93358876E-02 0.12500000E+03</pdfrwt>
<pdfrwt beam="2">  1       21 0.90487084E-02 0.12500000E+03</pdfrwt>
<totfact> 0.88999028E+06</totfact>
</mgrwt>
</event>
<event>
 6      0 +9.8758382e+01 1.25000000e+02 7.54677100e-03 1.12640300e-01
       21 -1    0    0  502  501 +0.0000000000e+00 +0.0000000000e+00 +4.2982833610e+01 4.2982833610e+01 0.0000000000e+00 0.0000e+00 -1.0000e+00
       21 -1    0    0  501  502 -0.0000000000e+00 -0.0000000000e+00 -9.0879303944e+01 9.0879303944e+01 0.0000000000e+00 0.0000e+00 -1.0000e+00
       25  2    1    2    0    0 +0.0000000000e+00 +0.0000000000e+00 -4.7896470334e+01 1.3386213755e+02 1.2500000000e+02 0.0000e+00 0.0000e+00
      -15  1    3    3    0    0 +2.9036056724e+01 +2.7120392348e+00 -9.0245124730e+00 3.0578543151e+01 1.7770000000e+00 0.0000e+00 -1.0000e+00
       15  1    3    3    0    0 +2.9019008981e+00 -2.2115913202e+01 -5.7374601099e+01 6.1583579191e+01 1.7770000000e+00 0.0000e+00 -1.0000e+00
       22  1    3    3    0    0 -3.1937957622e+01 +1.9403873967e+01 +1.8502643237e+01 4.1700015213e+01 0.0000000000e+00 0.0000e+00 -1.0000e+00
<mgrwt>
<rscale>  2 0.12500000E+03</rscale>
<asrwt>0</asrwt>
<pdfrwt beam="1">  1       21 0.63210049E-02 0.12500000E+03</pdfrwt>
<pdfrwt beam="2">  1       21 0.13364604E-01 0.12500000E+03</pdfrwt>
<totfact> 0.87405641E+06</totfact>
</mgrwt>
</event>
<event>
 6      0 +9.8758382e+01 1.25000000e+02 7.54677100e-03 1.12640300e-01
       21 -1    0    0  502  501 +0.0000000000e+00 +0.0000000000e+00 +5.4085602513e+00 5.4085602513e+00 0.0000000000e+00 0.0000e+00 1.0000e+00
       21 -1    0    0  501  502 -0.0000000000e+00 -0.0000000000e+00 -7.2223472023e+02 7.2223472023e+02 0.0000000000e+00 0.0000e+00 1.0000e+00
       25  2    1    2    0    0 +0.0000000000e+00 +0.0000000000e+00 -7.1682615998e+02 7.2764328049e+02 1.2500000000e+02 0.0000e+00 0.0000e+00
      -15  1    3    3    0    0 +4.7519957789e+01 -1.0243348554e+01 -2.6791946448e+02 2.7229959558e+02 1.7770000000e+00 0.0000e+00 -1.0000e+00
       15  1    3    3    0    0 -1.5086146881e+01 -1.7295687277e+00 -2.0649665349e+01 2.5693377430e+01 1.7770000000e+00 0.0000e+00 -1.0000e+00
       22  1    3    3    0    0 -3.2433810908e+01 +1.1972917282e+01 -4.2825702991e+02 4.2965030723e+02 0.0000000000e+00 0.0000e+00 -1.0000e+00
<mgrwt>
<rscale>  2 0.12500000E+03</rscale>
<asrwt>0</asrwt>
<pdfrwt beam="1">  1       21 0.79537647E-03 0.12500000E+03</pdfrwt>
<pdfrwt beam="2">  1       21 0.10621099E+00 0.12500000E+03</pdfrwt>
<totfact> 0.31547267E+06</totfact>
</mgrwt>
</event>
<event>
 6      0 +9.8758382e+01 1.25000000e+02 7.54677100e-03 1.12640300e-01
       21 -1    0    0  502  501 +0.0000000000e+00 +0.0000000000e+00 +4.5508344870e+02 4.5508344870e+02 0.0000000000e+00 0.0000e+00 1.0000e+00
       21 -1    0    0  501  502 -0.0000000000e+00 -0.0000000000e+00 -8.5835905726e+00 8.5835905726e+00 0.0000000000e+00 0.0000e+00 1.0000e+00
       25  2    1    2    0    0 +0.0000000000e+00 +0.0000000000e+00 +4.4649985813e+02 4.6366703927e+02 1.2500000000e+02 0.0000e+00 0.0000e+00
      -15  1    3    3    0    0 +2.4005159071e+01 +8.7288391022e-01 +1.9836568560e+01 3.1203473678e+01 1.7770000000e+00 0.0000e+00 -1.0000e+00
       15  1    3    3    0    0 -1.9206136701e+01 +1.4964880867e+01 +4.0213107606e+02 4.0287142292e+02 1.7770000000e+00 0.0000e+00 -1.0000e+00
       22  1    3    3    0    0 -4.7990223704e+00 -1.5837764778e+01 +2.4532213582e+01 2.9592142743e+01 0.0000000000e+00 0.0000e+00 -1.0000e+00
<mgrwt>
<rscale>  2 0.12500000E+03</rscale>
<asrwt>0</asrwt>
<pdfrwt beam="1">  1       21 0.66924021E-01 0.12500000E+03</pdfrwt>
<pdfrwt beam="2">  1       21 0.12622930E-02 0.12500000E+03</pdfrwt>
<totfact> 0.48153992E+06</totfact>
</mgrwt>
</event>
<event>
 6      0 +9.8758382e+01 1.25000000e+02 7.54677100e-03 1.12640300e-01
       21 -1    0    0  502  501 +0.0000000000e+00 +0.0000000000e+00 +2.7253269852e+02 2.7253269852e+02 0.0000000000e+00 0.0000e+00 -1.0000e+00
       21 -1    0    0  501  502 -0.0000000000e+00 -0.0000000000e+00 -1.4333142486e+01 1.4333142486e+01 0.0000000000e+00 0.0000e+00 -1.0000e+00
       25  2    1    2    0    0 +0.0000000000e+00 +0.0000000000e+00 +2.5819955603e+02 2.8686584100e+02 1.2500000000e+02 0.0000e+00 0.0000e+00
      -15  1    3    3    0    0 -1.6958667892e+01 -3.2956076498e+01 +4.9781526125e+01 6.2089109086e+01 1.7770000000e+00 0.0000e+00 -1.0000e+00
       15  1    3    3    0    0 -2.6217878432e+01 +1.9422988036e+01 +4.7762695015e+01 5.7871084125e+01 1.7770000000e+00 0.0000e+00 -1.0000e+00
       22  1    3    3    0    0 +4.3176546323e+01 +1.3533088462e+01 +1.6065533490e+02 1.6690564780e+02 0.0000000000e+00 0.0000e+00 -1.0000e+00
<mgrwt>
<rscale>  2 0.12500000E+03</rscale>
<asrwt>0</asrwt>
<pdfrwt beam="1">  1       21 0.40078335E-01 0.12500000E+03</pdfrwt>
<pdfrwt beam="2">  1       21 0.21078152E-02 0.12500000E+03</pdfrwt>
<totfact> 0.65477698E+06</totfact>
</mgrwt>
</event>
<event>
 6      0 +9.8758382e+01 1.25000000e+02 7.54677100e-03 1.12640300e-01
       21 -1    0    0  502  501 +0.0000000000e+00 +0.0000000000e+00 +1.2957540514e+01 1.2957540514e+01 0.0000000000e+00 0.0000e+00 1.0000e+00
       21 -1    0    0  501  502 -0.0000000000e+00 -0.0000000000e+00 -3.0146538964e+02 3.0146538964e+02 0.0000000000e+00 0.0000e+00 1.0000e+00
       25  2    1    2    0    0 +0.0000000000e+00 +0.0000000000e+00 -2.8850784913e+02 3.1442293016e+02 1.2500000000e+02 0.0000e+00 0.0000e+00
      -15  1    3    3    0    0 -4.0684881893e+01 +8.1147966555e+00 -3.5113215384e+01 5.4380190907e+01 1.7770000000e+00 0.0000e+00 -1.0000e+00
       15  1    3    3    0    0 +3.5432641509e+00 -1.4080375692e+01 -2.8613900416e+01 3.2136034704e+01 1.7770000000e+00 0.0000e+00 -1.0000e+00
       22  1    3    3    0    0 +3.7141617742e+01 +5.9655790366e+00 -2.2478073332e+02 2.2790670454e+02 0.0000000000e+00 0.0000e+00 -1.0000e+00
<mgrwt>
<rscale>  2 0.12500000E+03</rscale>
<asrwt>0</asrwt>
<pdfrwt beam="1">  1       21 0.19055211E-02 0.12500000E+03</pdfrwt>
<pdfrwt beam="2">  1       21 0.44333136E-01 0.12500000E+03</pdfrwt>
<totfact> 0.62321273E+06</totfact>
</mgrwt>
</event>
<event>
 6      0 +9.8758382e+01 1.25000000e+02 7.54677100e-03 1.12640300e-01
       21 -1    0    0  502  501 +0.0000000000e+00 +0.0000000000e+00 +3.7652679901e+01 3.7652679901e+01 0.0000000000e+00 0.0000e+00 -1.0000e+00
       21 -1    0    0  501  502 -0.0000000000e+00 -0.0000000000e+00 -1.0374427558e+02 1.0374427558e+02 0.0000000000e+00 0.0000e+00 -1.0000e+00
       25  2    1    2    0    0 +0.0000000000e+00 +0.0000000000e+00 -6.6091595678e+01 1.4139695548e+02 1.2500000000e+02 0.0000e+00 0.0000e+00
      -15  1    3    3    0    0 +2.6995601658e+01 -4.3616926100e+01 -2.1968902572e+01 5.5830002333e+01 1.7770000000e+00 0.0000e+00 -1.0000e+00
       15  1    3    3    0    0 +8.3993446192e+00 -6.7976381916e-01 +5.4998390783e+00 1.0218465039e+01 1.7770000000e+00 0.0000e+00 -1.0000e+00
       22  1    3    3    0    0 -3.5394946277e+01 +4.4296689919e+01 -4.9622532184e+01 7.5348488108e+01 0.0000000000e+00 0.0000e+00 -1.0000e+00
<mgrwt>
<rscale>  2 0.12500000E+03</rscale>
<asrwt>0</asrwt>
<pdfrwt beam="1">  1       21 0.55371589E-02 0.12500000E+03</pdfrwt>
<pdfrwt beam="2">  1       21 0.15256511E-01 0.12500000E+03</pdfrwt>
<totfact> 0.86098453E+06</totfact>
</mgrwt>
</event>
<event>
 6      0 +9.8758382e+01 1.25000000e+02 7.54677100e-03 1.12640300e-01
       21 -1    0    0  502  501 +0.0000000000e+00 +0.0000000000e+00 +7.0211611160e+01 7.0211611160e+01 0.0000000000e+00 0.0000e+00 1.0000e+00
       21 -1    0    0  501  502 -0.0000000000e+00 -0.0000000000e+00 -5.5635384739e+01 5.5635384739e+01 0.0000000000e+00 0.0000e+00 1.0000e+00
       25  2    1    2    0    0 +0.0000000000e+00 +0.0000000000e+00 +1.4576226421e+01 1.2584699590e+02 1.2500000000e+02 0.0000e+00 0.0000e+00
      -15  1    3    3    0    0 -7.5472711608e+00 +1.2025880849e+01 -3.4557762191e+01 3.7402937970e+01 1.7770000000e+00 0.0000e+00 -1.0000e+00
       15  1    3    3    0    0 +2.1070898023e+01 +2.4676799916e+01 +1.2395266001e+01 3.4781137788e+01 1.7770000000e+00 0.0000e+00 -1.0000e+00
       22  1    3    3    0    0 -1.3523626862e+01 -3.6702680765e+01 +3.6738722611e+01 5.3662920140e+01 0.0000000000e+00 0.0000e+00 -1.0000e+00
<mgrwt>
<rscale>  2 0.12500000E+03</rscale>
<asrwt>0</asrwt>
<pdfrwt beam="1">  1       21 0.10325237E-01 0.12500000E+03</pdfrwt>
<pdfrwt beam="2">  1       21 0.81816742E-02 0.12500000E+03</pdfrwt>
<totfact> 0.88839529E+06</totfact>
</mgrwt>
</event>
<event>
 6      0 +9.8758382e+01 1.25000000e+02 7.54677100e-03 1.12640300e-01
       21 -1    0    0  502  501 +0.0000000000e+00 +0.0000000000e+00 +1.2806362643e+02 1.2806362643e+02 0.0000000000e+00 0.0000e+00 1.0000e+00
       21 -1    0    0  501  502 -0.0000000000e+00 -0.0000000000e+00 -3.0502415938e+01 3.0502415938e+01 0.0000000000e+00 0.0000e+00 1.0000e+00
       25  2    1    2    0    0 +0.0000000000e+00 +0.0000000000e+00 +9.7561210495e+01 1.5856604237e+02 1.2500000000e+02 0.0000e+00 0.0000e+00
      -15  1    3    3    0    0 -3.8063054039e+01 +1.7828209703e+01 +1.5975484408e+01 4.5000166389e+01 1.7770000000e+00 0.0000e+00 -1.0000e+00
       15  1    3    3    0    0 +2.5716260679e+00 +2.3813988185e+01 +2.9291692303e+01 3.7879813369e+01 1.7770000000e+00 0.0000e+00 -1.0000e+00
       22  1    3    3    0    0 +3.5491427972e+01 -4.1642197887e+01 +5.2294033786e+01 7.5686062614e+01 0.0000000000e+00 0.0000e+00 -1.0000e+00
<mgrwt>
<rscale>  2 0.12500000E+03</rscale>
<asrwt>0</asrwt>
<pdfrwt beam="1">  1       21 0.18832886E-01 0.12500000E+03</pdfrwt>
<pdfrwt beam="2">  1       21 0.44856495E-02 0.12500000E+03</pdfrwt>
<totfact> 0.83212276E+06</totfact>
</mgrwt>
</event>
<event>
 6      0 +9.8758382e+01 1.25000000e+02 7.54677100e-03 1.12640300e-01
       21 -1    0    0  502  501 +0.0000000000e+00 +0.0000000000e+00 +5.5949286312e+02 5.5949286312e+02 0.0000000000e+00 0.0000e+00 -1.0000e+00
       21 -1    0    0  501  502 -0.0000000000e+00 -0.0000000000e+00 -6.9817691297e+00 6.9817691297e+00 0.0000000000e+00 0.0000e+00 -1.0000e+00
       25  2    1    2    0    0 +0.0000000000e+00 +0.0000000000e+00 +5.5251109399e+02 5.6647463225e+02 1.2500000000e+02 0.0000e+00 0.0000e+00
      -15  1    3    3    0    0 +1.0186458013e+01 +3.7900118194e+01 +1.4444306219e+02 1.4969014272e+02 1.7770000000e+00 0.0000e+00 -1.0000e+00
       15  1    3    3    0    0 -2.4674108338e+01 -4.3081472564e+00 +4.2300783331e+01 4.9192334306e+01 1.7770000000e+00 0.0000e+00 -1.0000e+00
       22  1    3    3    0    0 +1.4487650325e+01 -3.3591970938e+01 +3.6576724846e+02 3.6759215521e+02 0.0000000000e+00 0.0000e+00 -1.0000e+00
<mgrwt>
<rscale>  2 0.12500000E+03</rscale>
<asrwt>0</asrwt>
<pdfrwt beam="1">  1       21 0.82278332E-01 0.12500000E+03</pdfrwt>
<pdfrwt beam="2">  1       21 0.10267311E-02 0.12500000E+03</pdfrwt>
<totfact> 0.40696467E+06</totfact>
</mgrwt>
</event>
<event>
 6      0 +9.8758382e+01 1.25000000e+02 7.54677100e-03 1.12640300e-01
       21 -1    0    0  502  501 +0.0000000000e+00 +0.0000000000e+00 +8.5782078627e+01 8.5782078627e+01 0.0000000000e+00 0.0000e+00 1.0000e+00
       21 -1    0    0  501  502 -0.0000000000e+00 -0.0000000000e+00 -4.5536900744e+01 4.5536900744e+01 0.0000000000e+00 0.0000e+00 1.0000e+00
       25  2    1    2    0    0 +0.0000000000e+00 +0.0000000000e+00 +4.0245177883e+01 1.3131897937e+02 1.2500000000e+02 0.0000e+00 0.0000e+00
      -15  1    3    3    0    0 -2.6551933940e+01 -3.5021841147e+01 +3.9209765024e+01 5.8924510652e+01 1.7770000000e+00 0.0000e+00 -1.0000e+00
       15  1    3    3    0    0 -7.8780135439e+00 -1.0895642063e+01 -5.4928742742e+00 1.4632412999e+01 1.7770000000e+00 0.0000e+00 -1.0000e+00
       22  1    3    3    0    0 +3.4429947484e+01 +4.5917483210e+01 +6.5282871329e+00 5.7762055720e+01 0.0000000000e+00 0.0000e+00 -1.0000e+00
<mgrwt>
<rscale>  2 0.12500000E+03</rscale>
<asrwt>0</asrwt>
<pdfrwt beam="1">  1       21 0.12615012E-01 0.12500000E+03</pdfrwt>
<pdfrwt beam="2">  1       21 0.66966031E-02 0.12500000E+03</pdfrwt>
<totfact> 0.87858504E+06</totfact>
</mgrwt>
</event>
<event>
 6      0 +9.8758382e+01 1.25000000e+02 7.54677100e-03 1.12640300e-01
       21 -1    0    0  502  501 +0.0000000000e+00 +0.0000000000e+00 +9.2579941357e+01 9.2579941357e+01 0.0000000000e+00 0.0000e+00 1.0000e+00
       21 -1    0    0  501  502 -0.0000000000e+00 -0.0000000000e+00 -4.2193265007e+01 4.2193265007e+01 0.0000000000e+00 0.0000e+00 1.0000e+00
       25  2    1    2    0    0 +0.0000000000e+00 +0.0000000000e+00 +5.0386676350e+01 1.3477320636e+02 1.2500000000e+02 0.0000e+00 0.0000e+00
      -15  1    3    3    0    0 -1.2270710592e+01 -1.4532015624e+00 +3.8425270994e+01 4.0402243913e+01 1.7770000000e+00 0.0000e+00 -1.0000e+00
       15  1    3    3    0    0 +3.9834731787e+01 +4.7333892249e+00 +3.8743972804e+01 5.5798422807e+01 1.7770000000e+00 0.0000e+00 -1.0000e+00
       22  1    3    3    0    0 -2.7564021195e+01 -3.2801876624e+00 -2.6782567447e+01 3.8572539645e+01 0.0000000000e+00 0.0000e+00 -1.0000e+00
<mgrwt>
<rscale>  2 0.12500000E+03</rscale>
<asrwt>0</asrwt>
<pdfrwt beam="1">  1       21 0.13614697E-01 0.12500000E+03</pdfrwt>
<pdfrwt beam="2">  1       21 0.62048919E-02 0.12500000E+03</pdfrwt>
<totfact> 0.87245588E+06</totfact>
</mgrwt>
</event>
<event>
 6      0 +9.8758382e+01 1.25000000e+02 7.54677100e-03 1.12640300e-01
       21 -1    0    0  502  501 +0.0000000000e+00 +0.0000000000e+00 +6.5136017611e+02 6.5136017611e+02 0.0000000000e+00 0.0000e+00 -1.0000e+00
       21 -1    0    0  501  502 -0.0000000000e+00 -0.0000000000e+00 -5.9970660523e+00 5.9970660523e+00 0.0000000000e+00 0.0000e+00 -1.0000e+00
       25  2    1    2    0    0 +0.0000000000e+00 +0.0000000000e+00 +6.4536311006e+02 6.5735724216e+02 1.2500000000e+02 0.0000e+00 0.0000e+00
      -15  1    3    3    0    0 -1.6092568763e+01 +3.2412637559e+00 +1.3340904259e+01 2.1227670990e+01 1.7770000000e+00 0.0000e+00 -1.0000e+00
       15  1    3    3    0    0 +3.8928566723e+01 +1.0946655160e+01 +4.8368872222e+02 4.8537943951e+02 1.7770000000e+00 0.0000e+00 -1.0000e+00
       22  1    3    3    0    0 -2.2835997960e+01 -1.4187918915e+01 +1.4833348371e+02 1.5075013180e+02 0.0000000000e+00 0.0000e+00 -1.0000e+00
<mgrwt>
<rscale>  2 0.12500000E+03</rscale>
<asrwt>0</asrwt>
<pdfrwt beam="1">  1       21 0.95788213E-01 0.12500000E+03</pdfrwt>
<pdfrwt beam="2">  1       21 0.88192193E-03 0.12500000E+03</pdfrwt>
<totfact> 0.35152803E+06</totfact>
</mgrwt>
</event>
<event>
 6      0 +9.8758382e+01 1.25000000e+02 7.54677100e-03 1.12640300e-01
       21 -1    0    0  502  501 +0.0000000000e+00 +0.0000000000e+00 +5.6154215255e+02 5.6154215255e+02 0.0000000000e+00 0.0000e+00 -1.0000e+00
       21 -1    0    0  501  502 -0.0000000000e+00 -0.0000000000e+00 -6.9562898926e+00 6.9562898926e+00 0.0000000000e+00 0.0000e+00 -1.0000e+00
       25  2    1    2    0    0 +0.0000000000e+00 +0.0000000000e+00 +5.5458586265e+02 5.6849844244e+02 1.2500000000e+02 0.0000e+00 0.0000e+00
      -15  1    3    3    0    0 -2.6854624477e+01 +3.6652692876e+00 +7.5363627034e+01 8.0108919999e+01 1.7770000000e+00 0.0000e+00 -1.0000e+00
       15  1    3    3    0    0 -1.6324823685e+01 +3.3220446304e+01 +2.0973956025e+02 2.1298811888e+02 1.7770000000e+00 0.0000e+00 -1.0000e+00
       22  1    3    3    0    0 +4.3179448162e+01 -3.6885715592e+01 +2.6948267527e+02 2.7540140346e+02 0.0000000000e+00 0.0000e+00 -1.0000e+00
<mgrwt>
<rscale>  2 0.12500000E+03</rscale>
<asrwt>0</asrwt>
<pdfrwt beam="1">  1       21 0.82579698E-01 0.12500000E+03</pdfrwt>
<pdfrwt beam="2">  1       21 0.10229842E-02 0.12500000E+03</pdfrwt>
<totfact> 0.40563202E+06</totfact>
</mgrwt>
</event>
<event>
 6      0 +9.8758382e+01 1.25000000e+02 7.54677100e-03 1.12640300e-01
       21 -1    0    0  502  501 +0.0000000000e+00 +0.0000000000e+00 +2.6936716872e+02 2.6936716872e+02 0.0000000000e+00 0.0000e+00 1.0000e+00
       21 -1    0    0  501  502 -0.0000000000e+00 -0.0000000000e+00 -1.4501581683e+01 1.4501581683e+01 0.0000000000e+00 0.0000e+00 1.0000e+00
       25  2    1    2    0    0 +0.0000000000e+00 +0.0000000000e+00 +2.5486558704e+02 2.8386875040e+02 1.2500000000e+02 0.0000e+00 0.0000e+00
      -15  1    3    3    0    0 -1.8383013941e+01 -1.1219888541e+01 +1.6518723705e+01 2.7200129821e+01 1.7770000000e+00 0.0000e+00 -1.0000e+00
       15  1    3    3    0    0 -3.2458624850e+00 -3.6334160147e+01 +5.4980008385e+01 6.6005044260e+01 1.7770000000e+00 0.0000e+00 -1.0000e+00
       22  1    3    3    0    0 +2.1628876426e+01 +4.7554048688e+01 +1.8336685498e+02 1.9066357635e+02 0.0000000000e+00 0.0000e+00 -1.0000e+00
<mgrwt>
<rscale>  2 0.12500000E+03</rscale>
<asrwt>0</asrwt>
<pdfrwt beam="1">  1       21 0.39612816E-01 0.12500000E+03</pdfrwt>
<pdfrwt beam="2">  1       21 0.21325857E-02 0.12500000E+03</pdfrwt>
<totfact> 0.65831562E+06</totfact>
</mgrwt>
</event>
<event>
 6      0 +9.8758382e+01 1.25000000e+02 7.54677100e-03 1.12640300e-01
       21 -1    0    0  502  501 +0.0000000000e+00 +0.0000000000e+00 +2.4008632591e+02 2.4008632591e+02 0.0000000000e+00 0.0000e+00 1.0000e+00
       21 -1    0    0  501  502 -0.0000000000e+00 -0.0000000000e+00 -1.6270189421e+01 1.6270189421e+01 0.0000000000e+00 0.0000e+00 1.0000e+00
       25  2    1    2    0    0 +0.0000000000e+00 +0.0000000000e+00 +2.2381613649e+02 2.5635651533e+02 1.2500000000e+02 0.0000e+00 0.0000e+00
      -15  1    3    3    0    0 +9.1083725027e+00 -1.5007509638e+01 +4.5077393653e+01 4.8407819024e+01 1.7770000000e+00 0.0000e+00 -1.0000e+00
       15  1    3    3    0    0 +4.1837250236e+01 -1.5773619950e+01 +5.7255904564e+01 7.2667454408e+01 1.7770000000e+00 0.0000e+00 -1.0000e+00
       22  1    3    3    0    0 -5.0945622739e+01 +3.0781129588e+01 +1.2148283828e+02 1.3528124191e+02 0.0000000000e+00 0.0000e+00 -1.0000e+00
<mgrwt>
<rscale>  2 0.12500000E+03</rscale>
<asrwt>0</asrwt>
<pdfrwt beam="1">  1       21 0.35306811E-01 0.12500000E+03</pdfrwt>
<pdfrwt beam="2">  1       21 0.23926750E-02 0.12500000E+03</pdfrwt>
<totfact> 0.69192967E+06</totfact>
</mgrwt>
</event>
<event>
 6      0 +9.8758382e+01 1.25000000e+02 7.54677100e-03 1.12640300e-01
       21 -1    0    0  502  501 +0.0000000000e+00 +0.0000000000e+00 +1.1103248357e+01 1.1103248357e+01 0.0000000000e+00 0.0000e+00 1.0000e+00
       21 -1    0    0  501  502 -0.0000000000e+00 -0.0000000000e+00 -3.5181145863e+02 3.5181145863e+02 0.0000000000e+00 0.0000e+00 1.0000e+00
       25  2    1    2    0    0 +0.0000000000e+00 +0.0000000000e+00 -3.4070821028e+02 3.6291470699e+02 1.2500000000e+02 0.0000e+00 0.0000e+00
      -15  1    3    3    0    0 -9.6597304237e+00 -1.6142125828e+01 -1.3104890780e+02 1.3240412600e+02 1.7770000000e+00 0.0000e+00 -1.0000e+00
       15  1    3    3    0    0 +3.2131350345e+01 -2.7446096746e+01 -6.3094205827e+01 7.5958860178e+01 1.7770000000e+00 0.0000e+00 -1.0000e+00
       22  1    3    3    0    0 -2.2471619922e+01 +4.3588222574e+01 -1.4656509668e+02 1.5455172084e+02 0.0000000000e+00 0.0000e+00 -1.0000e+00
<mgrwt>
<rscale>  2 0.12500000E+03</rscale>
<asrwt>0</asrwt>
<pdfrwt beam="1">  1       21 0.16328309E-02 0.12500000E+03</pdfrwt>
<pdfrwt beam="2">  1       21 0.51736970E-01 0.12500000E+03</pdfrwt>
<totfact> 0.57222861E+06</totfact>
</mgrwt>
</event>
<event>
 6      0 +9.8758382e+01 1.25000000e+02 7.54677100e-03 1.12640300e-01
       21 -1    0    0  502  501 +0.0000000000e+00 +0.0000000000e+00 +1.0842762044e+02 1.0842762044e+02 0.0000000000e+00 0.0000e+00 1.0000e+00
       21 -1    0    0  501  502 -0.0000000000e+00 -0.0000000000e+00 -3.6026337055e+01 3.6026337055e+01 0.0000000000e+00 0.0000e+00 1.0000e+00
       25  2    1    2    0    0 +0.0000000000e+00 +0.0000000000e+00 +7.2401283382e+01 1.4445395749e+02 1.2500000000e+02 0.0000e+00 0.0000e+00
      -15  1    3    3    0    0 +4.7703902105e+01 +1.1039152055e+01 +2.0605283059e+01 5.3153180273e+01 1.7770000000e+00 0.0000e+00 -1.0000e+00
       15  1    3    3    0    0 +9.1093067905e+00 +1.0841030200e+01 +1.0934907373e+01 1.7978802359e+01 1.7770000000e+00 0.0000e+00 -1.0000e+00
       22  1    3    3    0    0 -5.6813208896e+01 -2.1880182254e+01 +4.0861092952e+01 7.3321974863e+01 0.0000000000e+00 0.0000e+00 -1.0000e+00
<mgrwt>
<rscale>  2 0.12500000E+03</rscale>
<asrwt>0</asrwt>
<pdfrwt beam="1">  1       21 0.15945238E-01 0.12500000E+03</pdfrwt>
<pdfrwt beam="2">  1       21 0.52979908E-02 0.12500000E+03</pdfrwt>
<totfact> 0.85568310E+06</totfact>
</mgrwt>
</event>
<event>
 6      0 +9.8758382e+01 1.25000000e+02 7.54677100e-03 1.12640300e-01
       21 -1    0    0  502  501 +0.0000000000e+00 +0.0000000000e+00 +1.4685889023e+02 1.4685889023e+02 0.0000000000e+00 0.0000e+00 1.0000e+00
       21 -1    0    0  501  502 -0.0000000000e+00 -0.0000000000e+00 -2.6598662116e+01 2.6598662116e+01 0.0000000000e+00 0.0000e+00 1.0000e+00
       25  2    1    2    0    0 +0.0000000000e+00 +0.0000000000e+00 +1.2026022811e+02 1.7345755235e+02 1.2500000000e+02 0.0000e+00 0.0000e+00
      -15  1    3    3    0    0 +1.6673945494e+01 -1.8347929337e+01 +2.5144706894e+01 3.5356484314e+01 1.7770000000e+00 0.0000e+00 -1.0000e+00
       15  1    3    3    0    0 +1.3575224124e+01 -3.5673504052e+01 +3.6449014061e+01 5.2806949887e+01 1.7770000000e+00 0.0000e+00 -1.0000e+00
       22  1    3    3    0    0 -3.0249169618e+01 +5.4021433388e+01 +5.8666507146e+01 8.5294118136e+01 0.0000000000e+00 0.0000e+00 -1.0000e+00
<mgrwt>
<rscale>  2 0.12500000E+03</rscale>
<asrwt>0</asrwt>
<pdfrwt beam="1">  1       21 0.21596895E-01 0.12500000E+03</pdfrwt>
<pdfrwt beam="2">  1       21 0.39115680E-02 0.12500000E+03</pdfrwt>
<totfact> 0.80819076E+06</totfact>
</mgrwt>
</event>
<event>
 6      0 +9.8758382e+01 1.25000000e+02 7.54677100e-03 1.12640300e-01
       21 -1    0    0  502  501 +0.0000000000e+00 +0.0000000000e+00 +4.5993001626e+00 4.5993001626e+00 0.0000000000e+00 0.0000e+00 1.0000e+00
       21 -1    0    0  501  502 -0.0000000000e+00 -0.0000000000e+00 -8.4931399603e+02 8.4931399603e+02 0.0000000000e+00 0.0000e+00 1.0000e+00
       25  2    1    2    0    0 +0.0000000000e+00 +0.0000000000e+00 -8.4471469587e+02 8.5391329619e+02 1.2500000000e+02 0.0000e+00 0.0000e+00
      -15  1    3    3    0    0 -3.6031347662e+01 +1.1487106690e+01 -2.2101927566e+02 2.2423846587e+02 1.7770000000e+00 0.0000e+00 -1.0000e+00
       15  1    3    3    0    0 +1.5548777461e+00 +1.2467392711e+01 -4.7492509761e+02 4.7509457963e+02 1.7770000000e+00 0.0000e+00 -1.0000e+00
       22  1    3    3    0    0 +3.4476469916e+01 -2.3954499401e+01 -1.4877032283e+02 1.5458025092e+02 0.0000000000e+00 0.0000e+00 -1.0000e+00
<mgrwt>
<rscale>  2 0.12500000E+03</rscale>
<asrwt>0</asrwt>
<pdfrwt beam="1">  1       21 0.67636819E-03 0.12500000E+03</pdfrwt>
<pdfrwt beam="2">  1       21 0.12489902E+00 0.12500000E+03</pdfrwt>
<totfact> 0.26122187E+06</totfact>
</mgrwt>
</event>
<event>
 6      0 +9.8758382e+01 1.25000000e+02 7.54677100e-03 1.12640300e-01
       21 -1    0    0  502  501 +0.0000000000e+00 +0.0000000000e+00 +2.5097810267e+01 2.5097810267e+01 0.0000000000e+00 0.0000e+00 1.0000e+00
       21 -1    0    0  501  502 -0.0000000000e+00 -0.0000000000e+00 -1.5564106822e+02 1.5564106822e+02 0.0000000000e+00 0.0000e+00 1.0000e+00
       25  2    1    2    0    0 +0.0000000000e+00 +0.0000000000e+00 -1.3054325796e+02 1.8073887849e+02 1.2500000000e+02 0.0000e+00 0.0000e+00
      -15  1    3    3    0    0 +3.2838129631e+01 -5.8302332337e+00 -7.8526805411e+01 8.5334349908e+01 1.7770000000e+00 0.0000e+00 -1.0000e+00
       15  1    3    3    0    0 +3.0486989003e+00 +1.0761465680e+01 +1.5255454043e+01 1.8999745146e+01 1.7770000000e+00 0.0000e+00 -1.0000e+00
       22  1    3    3    0    0 -3.5886828532e+01 -4.9312324460e+00 -6.7271906597e+01 7.6404783441e+01 0.0000000000e+00 0.0000e+00 -1.0000e+00
<mgrwt>
<rscale>  2 0.12500000E+03</rscale>
<asrwt>0</asrwt>
<pdfrwt beam="1">  1       21 0.36908544E-02 0.12500000E+03</pdfrwt>
<pdfrwt beam="2">  1       21 0.22888393E-01 0.12500000E+03</pdfrwt>
<totfact> 0.79693430E+06</totfact>
</mgrwt>
</event>
<event>
 6      0 +9.8758382e+01 1.25000000e+02 7.54677100e-03 1.12640300e-01
       21 -1    0    0  502  501 +0.0000000000e+00 +0.0000000000e+00 +3.2514535300e+02 3.2514535300e+02 0.0000000000e+00 0.0000e+00 -1.0000e+00
       21 -1    0    0  501  502 -0.0000000000e+00 -0.0000000000e+00 -1.2013857691e+01 1.2013857691e+01 0.0000000000e+00 0.0000e+00 -1.0000e+00
       25  2    1    2    0    0 +0.0000000000e+00 +0.0000000000e+00 +3.1313149531e+02 3.3715921070e+02 1.2500000000e+02 0.0000e+00 0.0000e+00
      -15  1    3    3    0    0 +1.3090040392e+01 -1.7884100649e+01 +1.1868263829e+02 1.2074732533e+02 1.7770000000e+00 0.0000e+00 -1.0000e+00
       15  1    3    3    0    0 -2.5878721708e-01 -2.3391216937e+01 +1.5840198062e+02 1.6012982606e+02 1.7770000000e+00 0.0000e+00 -1.0000e+00
       22  1    3    3    0    0 -1.2831253175e+01 +4.1275317586e+01 +3.6046876353e+01 5.6282059262e+01 0.0000000000e+00 0.0000e+00 -1.0000e+00
<mgrwt>
<rscale>  2 0.12500000E+03</rscale>
<asrwt>0</asrwt>
<pdfrwt beam="1">  1       21 0.47815487E-01 0.12500000E+03</pdfrwt>
<pdfrwt beam="2">  1       21 0.17667440E-02 0.12500000E+03</pdfrwt>
<totfact> 0.59862910E+06</totfact>
</mgrwt>
</event>
<event>
 6      0 +9.8758382e+01 1.25000000e+02 7.54677100e-03 1.12640300e-01
       21 -1    0    0  502  501 +0.0000000000e+00 +0.0000000000e+00 +2.9445117809e+01 2.9445117809e+01 0.0000000000e+00 0.0000e+00 1.0000e+00
       21 -1    0    0  501  502 -0.0000000000e+00 -0.0000000000e+00 -1.3266206049e+02 1.3266206049e+02 0.0000000000e+00 0.0000e+00 1.0000e+00
       25  2    1    2    0    0 +0.0000000000e+00 +0.0000000000e+00 -1.0321694268e+02 1.6210717830e+02 1.2500000000e+02 0.0000e+00 0.0000e+00
      -15  1    3    3    0    0 +1.5572365175e+01 -4.5611083833e+01 -9.6073928194e+01 1.0749989271e+02 1.7770000000e+00 0.0000e+00 -1.0000e+00
       15  1    3    3    0    0 +6.8510481377e-02 +1.7070533365e+01 +7.7314138262e+00 1.8823928704e+01 1.7770000000e+00 0.0000e+00 -1.0000e+00
       22  1    3    3    0    0 -1.5640875656e+01 +2.8540550467e+01 -1.4874428312e+01 3.5783356884e+01 0.0000000000e+00 0.0000e+00 -1.0000e+00
<mgrwt>
<rscale>  2 0.12500000E+03</rscale>
<asrwt>0</asrwt>
<pdfrwt beam="1">  1       21 0.43301644E-02 0.12500000E+03</pdfrwt>
<pdfrwt beam="2">  1       21 0.19509126E-01 0.12500000E+03</pdfrwt>
<totfact> 0.82635870E+06</totfact>
</mgrwt>
</event>
<event>
 6      0 +9.8758382e+01 1.25000000e+02 7.54677100e-03 1.12640300e-01
       21 -1    0    0  502  501 +0.0000000000e+00 +0.0000000000e+00 +3.7350921261e+01 3.7350921261e+01 0.0000000000e+00 0.0000e+00 1.0000e+00
       21 -1    0    0  501  502 -0.0000000000e+00 -0.0000000000e+00 -1.0458242710e+02 1.0458242710e+02 0.0000000000e+00 0.0000e+00 1.0000e+00
       25  2    1    2    0    0 +0.0000000000e+00 +0.0000000000e+00 -6.7231505844e+01 1.4193334836e+02 1.2500000000e+02 0.0000e+00 0.0000e+00
      -15  1    3    3    0    0 -1.2455069995e+00 -1.3096307167e+01 +1.0861843397e+01 1.7152315298e+01 1.7770000000e+00 0.0000e+00 -1.0000e+00
       15  1    3    3    0    0 -2.6946839865e+01 -1.9553500189e+01 +2.4315320132e+00 3.3429651888e+01 1.7770000000e+00 0.0000e+00 -1.0000e+00
       22  1    3    3    0    0 +2.8192346865e+01 +3.2649807356e+01 -8.0524881258e+01 9.1351381181e+01 0.0000000000e+00 0.0000e+00 -1.0000e+00
<mgrwt>
<rscale>  2 0.12500000E+03</rscale>
<asrwt>0</asrwt>
<pdfrwt beam="1">  1       21 0.54927827E-02 0.12500000E+03</pdfrwt>
<pdfrwt beam="2">  1       21 0.15379768E-01 0.12500000E+03</pdfrwt>
<totfact> 0.86005423E+06</totfact>
</mgrwt>
</event>
<event>
 6      0 +9.8758382e+01 1.25000000e+02 7.54677100e-03 1.12640300e-01
       21 -1    0    0  502  501 +0.0000000000e+00 +0.0000000000e+00 +5.8377463537e+00 5.8377463537e+00 0.0000000000e+00 0.0000e+00 1.0000e+00
       21 -1    0    0  501  502 -0.0000000000e+00 -0.0000000000e+00 -6.6913664338e+02 6.6913664338e+02 0.0000000000e+00 0.0000e+00 1.0000e+00
       25  2    1    2    0    0 +0.0000000000e+00 +0.0000000000e+00 -6.6329889703e+02 6.7497438973e+02 1.2500000000e+02 0.0000e+00 0.0000e+00
      -15  1    3    3    0    0 +2.7108064129e+01 +8.6661874311e+00 -8.0752656918e+01 8.5639355870e+01 1.7770000000e+00 0.0000e+00 -1.0000e+00
       15  1    3    3    0    0 -2.1262157337e+01 +4.0963855556e+00 -5.7027849876e+02 5.7069219688e+02 1.7770000000e+00 0.0000e+00 -1.0000e+00
       22  1    3    3    0    0 -5.8459067921e+00 -1.2762572987e+01 -1.2267741571e+01 1.8642837197e+01 0.0000000000e+00 0.0000e+00 -1.0000e+00
<mgrwt>
<rscale>  2 0.12500000E+03</rscale>
<asrwt>0</asrwt>
<pdfrwt beam="1">  1       21 0.85849191E-03 0.12500000E+03</pdfrwt>
<pdfrwt beam="2">  1       21 0.98402470E-01 0.12500000E+03</pdfrwt>
<totfact> 0.34212171E+06</totfact>
</mgrwt>
</event>
<event>
 6      0 +9.8758382e+01 1.25000000e+02 7.54677100e-03 1.12640300e-01
       21 -1    0    0  502  501 +0.0000000000e+00 +0.0000000000e+00 +3.7875380346e+02 3.7875380346e+02 0.0000000000e+00 0.0000e+00 -1.0000e+00
       21 -1    0    0  501  502 -0.0000000000e+00 -0.0000000000e+00 -1.0313427784e+01 1.0313427784e+01 0.0000000000e+00 0.0000e+00 -1.0000e+00
       25  2    1    2    0    0 +0.0000000000e+00 +0.0000000000e+00 +3.6844037568e+02 3.8906723125e+02 1.2500000000e+02 0.0000e+00 0.0000e+00
      -15  1    3    3    0    0 -1.3848429750e+01 +8.3301172865e+00 +1.0072151502e+01 1.9125266676e+01 1.7770000000e+00 0.0000e+00 -1.0000e+00
       15  1    3    3    0    0 -1.6815202894e+00 -4.0219543599e+01 +8.2622304595e+01 9.1924110784e+01 1.7770000000e+00 0.0000e+00 -1.0000e+00
       22  1    3    3    0    0 +1.5529950039e+01 +3.1889426312e+01 +2.7574591957e+02 2.7801785378e+02 0.0000000000e+00 0.0000e+00 -1.0000e+00
<mgrwt>
<rscale>  2 0.12500000E+03</rscale>
<asrwt>0</asrwt>
<pdfrwt beam="1">  1       21 0.55699080E-01 0.12500000E+03</pdfrwt>
<pdfrwt beam="2">  1       21 0.15166808E-02 0.12500000E+03</pdfrwt>
<totfact> 0.54678004E+06</totfact>
</mgrwt>
</event>
<event>
 6      0 +9.8758382e+01 1.25000000e+02 7.54677100e-03 1.12640300e-01
       21 -1    0    0  502  501 +0.0000000000e+00 +0.0000000000e+00 +4.1151785824e+01 4.1151785824e+01 0.0000000000e+00 0.0000e+00 1.0000e+00
       21 -1    0    0  501  502 -0.0000000000e+00 -0.0000000000e+00 -9.4922976531e+01 9.4922976531e+01 0.0000000000e+00 0.0000e+00 1.0000e+00
       25  2    1    2    0    0 +0.0000000000e+00 +0.0000000000e+00 -5.3771190707e+01 1.3607476236e+02 1.2500000000e+02 0.0000e+00 0.0000e+00
      -15  1    3    3    0    0 -2.4095608225e+00 +2.4557941872e+01 -5.6088481812e+01 6.1302316541e+01 1.7770000000e+00 0.0000e+00 -1.0000e+00
       15  1    3    3    0    0 +3.5102521087e+01 -2.4351972950e+00 +2.1535460755e+00 3.5297488045e+01 1.7770000000e+00 0.0000e+00 -1.0000e+00
       22  1    3    3    0    0 -3.2692960265e+01 -2.2122744577e+01 +1.6374503011e-01 3.9474957770e+01 0.0000000000e+00 0.0000e+00 -1.0000e+00
<mgrwt>
<rscale>  2 0.12500000E+03</rscale>
<asrwt>0</asrwt>
<pdfrwt beam="1">  1       21 0.60517334E-02 0.12500000E+03</pdfrwt>
<pdfrwt beam="2">  1       21 0.13959261E-01 0.12500000E+03</pdfrwt>
<totfact> 0.87018492E+06</totfact>
</mgrwt>
</event>
<event>
 6      0 +9.8758382e+01 1.25000000e+02 7.54677100e-03 1.12640300e-01
       21 -1    0    0  502  501 +0.0000000000e+00 +0.0000000000e+00 +4.9620273333e+02 4.9620273333e+02 0.0000000000e+00 0.0000e+00 -1.0000e+00
       21 -1    0    0  501  502 -0.0000000000e+00 -0.0000000000e+00 -7.8722863410e+00 7.8722863410e+00 0.0000000000e+00 0.0000e+00 -1.0000e+00
       25  2    1    2    0    0 +0.0000000000e+00 +0.0000000000e+00 +4.8833044699e+02 5.0407501968e+02 1.2500000000e+02 0.0000e+00 0.0000e+00
      -15  1    3    3    0    0 +2.9508374259e+01 +2.5312491725e+01 +1.5676941769e+02 1.6152793703e+02 1.7770000000e+00 0.0000e+00 -1.0000e+00
       15  1    3    3    0    0 -2.2629101903e+01 +2.5306593907e+01 +1.5846234498e+02 1.6206780203e+02 1.7770000000e+00 0.0000e+00 -1.0000e+00
       22  1    3    3    0    0 -6.8792723561e+00 -5.0619085632e+01 +1.7309868419e+02 1.8047928049e+02 0.0000000000e+00 0.0000e+00 -1.0000e+00
<mgrwt>
<rscale>  2 0.12500000E+03</rscale>
<asrwt>0</asrwt>
<pdfrwt beam="1">  1       21 0.72970969E-01 0.12500000E+03</pdfrwt>
<pdfrwt beam="2">  1       21 0.11576895E-02 0.12500000E+03</pdfrwt>
<totfact> 0.45024184E+06</totfact>
</mgrwt>
</event>
<event>
 6      0 +9.8758382e+01 1.25000000e+02 7.54677100e-03 1.12640300e-01
       21 -1    0    0  502  501 +0.0000000000e+00 +0.0000000000e+00 +5.3955504138e+01 5.3955504138e+01 0.0000000000e+00 0.0000e+00 -1.0000e+00
       21 -1    0    0  501  502 -0.0000000000e+00 -0.0000000000e+00 -7.2397618415e+01 7.2397618415e+01 0.0000000000e+00 0.0000e+00 -1.0000e+00
       25  2    1    2    0    0 +0.0000000000e+00 +0.0000000000e+00 -1.8442114277e+01 1.2635312255e+02 1.2500000000e+02 0.0000e+00 0.0000e+00
      -15  1    3    3    0    0 -1.4756831397e+01 +3.9187517595e+00 +4.5804506383e+01 4.8314917182e+01 1.7770000000e+00 0.0000e+00 -1.0000e+00
       15  1    3    3    0    0 +1.2621927384e+01 -2.1892261191e+01 -4.4839192324e+01 5.1500437359e+01 1.7770000000e+00 0.0000e+00 -1.0000e+00
       22  1    3    3    0    0 +2.1349040130e+00 +1.7973509431e+01 -1.9407428337e+01 2.6537768012e+01 0.0000000000e+00 0.0000e+00 -1.0000e+00
<mgrwt>
<rscale>  2 0.12500000E+03</rscale>
<asrwt>0</asrwt>
<pdfrwt beam="1">  1       21 0.79346330E-02 0.12500000E+03</pdfrwt>
<pdfrwt beam="2">  1       21 0.10646709E-01 0.12500000E+03</pdfrwt>
<totfact> 0.88748298E+06</totfact>
</mgrwt>
</event>
<event>
 6      0 +9.8758382e+01 1.25000000e+02 7.54677100e-03 1.12640300e-01
       21 -1    0    0  502  501 +0.0000000000e+00 +0.0000000000e+00 +1.7237736475e+02 1.7237736475e+02 0.0000000000e+00 0.0000e+00 -1.0000e+00
       21 -1    0    0  501  502 -0.0000000000e+00 -0.0000000000e+00 -2.2661037925e+01 2.2661037925e+01 0.0000000000e+00 0.0000e+00 -1.0000e+00
       25  2    1    2    0    0 +0.0000000000e+00 +0.0000000000e+00 +1.4971632682e+02 1.9503840267e+02 1.2500000000e+02 0.0000e+00 0.0000e+00
      -15  1    3    3    0    0 +1.6703621504e+01 -3.0719808737e+01 +9.3007127856e+01 9.9379078187e+01 1.7770000000e+00 0.0000e+00 -1.0000e+00
       15  1    3    3    0    0 +1.5318097486e+01 +2.8022615765e+01 +1.7977119758e+00 3.2035926742e+01 1.7770000000e+00 0.0000e+00 -1.0000e+00
       22  1    3    3    0    0 -3.2021718990e+01 +2.6971929726e+00 +5.4911486989e+01 6.3623397744e+01 0.0000000000e+00 0.0000e+00 -1.0000e+00
<mgrwt>
<rscale>  2 0.12500000E+03</rscale>
<asrwt>0</asrwt>
<pdfrwt beam="1">  1       21 0.25349612E-01 0.12500000E+03</pdfrwt>
<pdfrwt beam="2">  1       21 0.33325057E-02 0.12500000E+03</pdfrwt>
<totfact> 0.77548904E+06</totfact>
</mgrwt>
</event>
<event>
 6      0 +9.8758382e+01 1.25000000e+02 7.54677100e-03 1.12640300e-01
       21 -1    0    0  502  501 +0.0000000000e+00 +0.0000000000e+00 +1.7389505421e+01 1.7389505421e+01 0.0000000000e+00 0.0000e+00 -1.0000e+00
       21 -1    0    0  501  502 -0.0000000000e+00 -0.0000000000e+00 -2.2463261062e+02 2.2463261062e+02 0.0000000000e+00 0.0000e+00 -1.0000e+00
       25  2    1    2    0    0 +0.0000000000e+00 +0.0000000000e+00 -2.0724310520e+02 2.4202211604e+02 1.2500000000e+02 0.0000e+00 0.0000e+00
      -15  1    3    3    0    0 -2.4374789496e+01 +2.3043687288e+01 -8.9393112016e+01 9.5495696718e+01 1.7770000000e+00 0.0000e+00 -1.0000e+00
       15  1    3    3    0    0 +3.1488744864e+01 +2.2338210619e+01 -3.6811026439e+01 5.3373646150e+01 1.7770000000e+00 0.0000e+00 -1.0000e+00
       22  1    3    3    0    0 -7.1139553686e+00 -4.5381897908e+01 -8.1038966751e+01 9.3152773179e+01 0.0000000000e+00 0.0000e+00 -1.0000e+00
<mgrwt>
<rscale>  2 0.12500000E+03</rscale>
<asrwt>0</asrwt>
<pdfrwt beam="1">  1       21 0.25572802E-02 0.12500000E+03</pdfrwt>
<pdfrwt beam="2">  1       21 0.33034207E-01 0.12500000E+03</pdfrwt>
<totfact> 0.71040114E+06</totfact>
</mgrwt>
</event>
<event>
 6      0 +9.8758382e+01 1.25000000e+02 7.54677100e-03 1.12640300e-01
       21 -1    0    0  502  501 +0.0000000000e+00 +0.0000000000e+00 +2.3747365464e+01 2.3747365464e+01 0.0000000000e+00 0.0000e+00 -1.0000e+00
       21 -1    0    0  501  502 -0.0000000000e+00 -0.0000000000e+00 -1.6449193095e+02 1.6449193095e+02 0.0000000000e+00 0.0000e+00 -1.0000e+00
       25  2    1    2    0    0 +0.0000000000e+00 +0.0000000000e+00 -1.4074456548e+02 1.8823929641e+02 1.2500000000e+02 0.0000e+00 0.0000e+00
      -15  1    3    3    0    0 +1.7569247671e+00 +2.3288746151e+01 -1.4757369177e+02 1.4942089785e+02 1.7770000000e+00 0.0000e+00 -1.0000e+00
       15  1    3    3    0    0 -5.7926545316e+00 -9.3555573073e-01 -9.1729527420e+00 1.1033172801e+01 1.7770000000e+00 0.0000e+00 -1.0000e+00
       22  1    3    3    0    0 +4.0357297645e+00 -2.2353190421e+01 +1.6002079038e+01 2.7785225754e+01 0.0000000000e+00 0.0000e+00 -1.0000e+00
<mgrwt>
<rscale>  2 0.12500000E+03</rscale>
<asrwt>0</asrwt>
<pdfrwt beam="1">  1       21 0.34922595E-02 0.12500000E+03</pdfrwt>
<pdfrwt beam="2">  1       21 0.24189991E-01 0.12500000E+03</pdfrwt>
<totfact> 0.78560743E+06</totfact>
</mgrwt>
</event>
<event>
 6      0 +9.8758382e+01 1.25000000e+02 7.54677100e-03 1.12640300e-01
       21 -1    0    0  502  501 +0.0000000000e+00 +0.0000000000e+00 +1.1456171260e+01 1.1456171260e+01 0.0000000000e+00 0.0000e+00 1.0000e+00
       21 -1    0    0  501  502 -0.0000000000e+00 -0.0000000000e+00 -3.4097342920e+02 3.4097342920e+02 0.0000000000e+00 0.0000e+00 1.0000e+00
       25  2    1    2    0    0 +0.0000000000e+00 +0.0000000000e+00 -3.2951725794e+02 3.5242960046e+02 1.2500000000e+02 0.0000e+00 0.0000e+00
      -15  1    3    3    0    0 -1.4552622004e+01 +1.8436106714e+01 -2.8846138269e+02 2.8942148481e+02 1.7770000000e+00 0.0000e+00 -1.0000e+00
       15  1    3    3    0    0 -7.2744871127e+00 -2.3742371381e+01 -2.5811157706e+01 3.5860729952e+01 1.7770000000e+00 0.0000e+00 -1.0000e+00
       22  1    3    3    0    0 +2.1827109117e+01 +5.3062646669e+00 -1.5244717539e+01 2.7147385692e+01 0.0000000000e+00 0.0000e+00 -1.0000e+00
<mgrwt>
<rscale>  2 0.12500000E+03</rscale>
<asrwt>0</asrwt>
<pdfrwt beam="1">  1       21 0.16847309E-02 0.12500000E+03</pdfrwt>
<pdfrwt beam="2">  1       21 0.50143156E-01 0.12500000E+03</pdfrwt>
<totfact> 0.58280666E+06</totfact>
</mgrwt>
</event>
<event>
 6      0 +9.8758382e+01 1.25000000e+02 7.54677100e-03 1.12640300e-01
       21 -1    0    0  502  501 +0.0000000000e+00 +0.0000000000e+00 +1.7594381655e+02 1.7594381655e+02 0.0000000000e+00 0.0000e+00 1.0000e+00
       21 -1    0    0  501  502 -0.0000000000e+00 -0.0000000000e+00 -2.2201689589e+01 2.2201689589e+01 0.0000000000e+00 0.0000e+00 1.0000e+00
       25  2    1    2    0    0 +0.0000000000e+00 +0.0000000000e+00 +1.5374212696e+02 1.9814550613e+02 1.2500000000e+02 0.0000e+00 0.0000e+00
      -15  1    3    3    0    0 -1.3291843289e+01 +8.4387767519e+00 +6.0020579765e+01 6.2076676582e+01 1.7770000000e+00 0.0000e+00 -1.0000e+00
       15  1    3    3    0    0 -3.3279951114e+01 -3.1763529643e+01 +5.0967392928e+01 6.8682674907e+01 1.7770000000e+00 0.0000e+00 -1.0000e+00
       22  1    3    3    0    0 +4.6571794403e+01 +2.3324752891e+01 +4.2754154281e+01 6.7386154658e+01 0.0000000000e+00 0.0000e+00 -1.0000e+00
<mgrwt>
<rscale>  2 0.12500000E+03</rscale>
<asrwt>0</asrwt>
<pdfrwt beam="1">  1       21 0.25874090E-01 0.12500000E+03</pdfrwt>
<pdfrwt beam="2">  1       21 0.32649544E-02 0.12500000E+03</pdfrwt>
<totfact> 0.77090388E+06</totfact>
</mgrwt>
</event>
<event>
 6      0 +9.8758382e+01 1.25000000e+02 7.54677100e-03 1.12640300e-01
       21 -1    0    0  502  501 +0.0000000000e+00 +0.0000000000e+00 +4.3880825373e+02 4.3880825373e+02 0.0000000000e+00 0.0000e+00 1.0000e+00
       21 -1    0    0  501  502 -0.0000000000e+00 -0.0000000000e+00 -8.9019519729e+00 8.9019519729e+00 0.0000000000e+00 0.0000e+00 1.0000e+00
       25  2    1    2    0    0 +0.0000000000e+00 +0.0000000000e+00 +4.2990630175e+02 4.4771020570e+02 1.2500000000e+02 0.0000e+00 0.0000e+00
      -15  1    3    3    0    0 +1.0469677001e+01 +5.1224098796e+01 +1.7979970145e+02 1.8725547470e+02 1.7770000000e+00 0.0000e+00 -1.0000e+00
       15  1    3    3    0    0 +1.9218891696e+01 -2.2439178737e+01 +7.7389138761e+01 8.2856014070e+01 1.7770000000e+00 0.0000e+00 -1.0000e+00
       22  1    3    3    0    0 -2.9688568697e+01 -2.8784920059e+01 +1.7271746149e+02 1.7759871688e+02 0.0000000000e+00 0.0000e+00 -1.0000e+00
<mgrwt>
<rscale>  2 0.12500000E+03</rscale>
<asrwt>0</asrwt>
<pdfrwt beam="1">  1       21 0.64530611E-01 0.12500000E+03</pdfrwt>
<pdfrwt beam="2">  1       21 0.13091109E-02 0.12500000E+03</pdfrwt>
<totfact> 0.49466371E+06</totfact>
</mgrwt>
</event>
<event>
 6      0 +9.8758382e+01 1.25000000e+02 7.54677100e-03 1.12640300e-01
       21 -1    0    0  502  501 +0.0000000000e+00 +0.0000000000e+00 +3.3828940532e+00 3.3828940532e+00 0.0000000000e+00 0.0000e+00 1.0000e+00
       21 -1    0    0  501  502 -0.0000000000e+00 -0.0000000000e+00 -1.1547065733e+03 1.1547065733e+03 0.0000000000e+00 0.0000e+00 1.0000e+00
       25  2    1    2    0    0 +0.0000000000e+00 +0.0000000000e+00 -1.1513236793e+03 1.1580894674e+03 1.2500000000e+02 0.0000e+00 0.0000e+00
      -15  1    3    3    0    0 +3.0889123513e+01 +1.5847158875e+01 -3.6150658437e+02 3.6317411618e+02 1.7770000000e+00 0.0000e+00 -1.0000e+00
       15  1    3    3    0    0 +2.4172757387e+01 +2.6343112504e+00 -4.0570743092e+02 4.0643934237e+02 1.7770000000e+00 0.0000e+00 -1.0000e+00
       22  1    3    3    0    0 -5.5061880901e+01 -1.8481470125e+01 -3.8410966454e+02 3.8847600937e+02 0.0000000000e+00 0.0000e+00 -1.0000e+00
<mgrwt>
<rscale>  2 0.12500000E+03</rscale>
<asrwt>0</asrwt>
<pdfrwt beam="1">  1       21 0.49748468E-03 0.12500000E+03</pdfrwt>
<pdfrwt beam="2">  1       21 0.16980970E+00 0.12500000E+03</pdfrwt>
<totfact> 0.16981467E+06</totfact>
</mgrwt>
</event>
<event>
 6      0 +9.8758382e+01 1.25000000e+02 7.54677100e-03 1.12640300e-01
       21 -1    0    0  502  501 +0.0000000000e+00 +0.0000000000e+00 +8.7292327534e+00 8.7292327534e+00 0.0000000000e+00 0.0000e+00 1.0000e+00
       21 -1    0    0  501  502 -0.0000000000e+00 -0.0000000000e+00 -4.4749064555e+02 4.4749064555e+02 0.0000000000e+00 0.0000e+00 1.0000e+00
       25  2    1    2    0    0 +0.0000000000e+00 +0.0000000000e+00 -4.3876141280e+02 4.5621987830e+02 1.2500000000e+02 0.0000e+00 0.0000e+00
      -15  1    3    3    0    0 +1.2399573515e+01 +1.1814344213e+01 -2.1563033854e+01 2.7594389113e+01 1.7770000000e+00 0.0000e+00 -1.0000e+00
       15  1    3    3    0    0 +2.1626333738e+01 -2.0900190067e+01 -4.1514719848e+01 5.1294697083e+01 1.7770000000e+00 0.0000e+00 -1.0000e+00
       22  1    3    3    0    0 -3.4025907253e+01 +9.0858458533e+00 -3.7568365918e+02 3.7733079219e+02 0.0000000000e+00 0.0000e+00 -1.0000e+00
<mgrwt>
<rscale>  2 0.12500000E+03</rscale>
<asrwt>0</asrwt>
<pdfrwt beam="1">  1       21 0.12837106E-02 0.12500000E+03</pdfrwt>
<pdfrwt beam="2">  1       21 0.65807455E-01 0.12500000E+03</pdfrwt>
<totfact> 0.48761420E+06</totfact>
</mgrwt>
</event>
<event>
 6      0 +9.8758382e+01 1.25000000e+02 7.54677100e-03 1.12640300e-01
       21 -1    0    0  502  501 +0.0000000000e+00 +0.0000000000e+00 +2.3065330041e+02 2.3065330041e+02 0.0000000000e+00 0.0000e+00 1.0000e+00
       21 -1    0    0  501  502 -0.0000000000e+00 -0.0000000000e+00 -1.6935591180e+01 1.6935591180e+01 0.0000000000e+00 0.0000e+00 1.0000e+00
       25  2    1    2    0    0 +0.0000000000e+00 +0.0000000000e+00 +2.1371770923e+02 2.4758889159e+02 1.2500000000e+02 0.0000e+00 0.0000e+00
      -15  1    3    3    0    0 -1.2994799833e+01 -3.5241879423e+01 +1.2379825909e+02 1.2938323528e+02 1.7770000000e+00 0.0000e+00 -1.0000e+00
       15  1    3    3    0    0 -8.9046772442e+00 +3.7282554926e+01 +8.8150523169e+01 9.6140286263e+01 1.7770000000e+00 0.0000e+00 -1.0000e+00
       22  1    3    3    0    0 +2.1899477077e+01 -2.0406755033e+00 +1.7689269680e+00 2.2065370047e+01 0.0000000000e+00 0.0000e+00 -1.0000e+00
<mgrwt>
<rscale>  2 0.12500000E+03</rscale>
<asrwt>0</asrwt>
<pdfrwt beam="1">  1       21 0.33919601E-01 0.12500000E+03</pdfrwt>
<pdfrwt beam="2">  1       21 0.24905283E-02 0.12500000E+03</pdfrwt>
<totfact> 0.70314128E+06</totfact>
</mgrwt>
</event>
<event>
 6      0 +9.8758382e+01 1.25000000e+02 7.54677100e-03 1.12640300e-01
       21 -1    0    0  502  501 +0.0000000000e+00 +0.0000000000e+00 +4.9262670062e+00 4.9262670062e+00 0.0000000000e+00 0.0000e+00 -1.0000e+00
       21 -1    0    0  501  502 -0.0000000000e+00 -0.0000000000e+00 -7.9294321544e+02 7.9294321544e+02 0.0000000000e+00 0.0000e+00 -1.0000e+00
       25  2    1    2    0    0 +0.0000000000e+00 +0.0000000000e+00 -7.8801694843e+02 7.9786948244e+02 1.2500000000e+02 0.0000e+00 0.0000e+00
      -15  1    3    3    0    0 +2.8516434744e+01 -6.8604612660e+00 -5.0256940361e+02 5.0342766725e+02 1.7770000000e+00 0.0000e+00 -1.0000e+00
       15  1    3    3    0    0 -9.0505054667e+00 +7.1599386232e+00 -2.6813542168e+02 2.6838952748e+02 1.7770000000e+00 0.0000e+00 -1.0000e+00
       22  1    3    3    0    0 -1.9465929277e+01 -2.9947735721e-01 -1.7312123238e+01 2.6052287813e+01 0.0000000000e+00 0.0000e+00 -1.0000e+00
<mgrwt>
<rscale>  2 0.12500000E+03</rscale>
<asrwt>0</asrwt>
<pdfrwt beam="1">  1       21 0.72445121E-03 0.12500000E+03</pdfrwt>
<pdfrwt beam="2">  1       21 0.11660927E+00 0.12500000E+03</pdfrwt>
<totfact> 0.28374488E+06</totfact>
</mgrwt>
</event>
<event>
 6      0 +9.8758382e+01 1.25000000e+02 7.54677100e-03 1.12640300e-01
       21 -1    0    0  502  501 +0.0000000000e+00 +0.0000000000e+00 +9.6268940596e+01 9.6268940596e+01 0.0000000000e+00 0.0000e+00 1.0000e+00
       21 -1    0    0  501  502 -0.0000000000e+00 -0.0000000000e+00 -4.0576430735e+01 4.0576430735e+01 0.0000000000e+00 0.0000e+00 1.0000e+00
       25  2    1    2    0    0 +0.0000000000e+00 +0.0000000000e+00 +5.5692509861e+01 1.3684537133e+02 1.2500000000e+02 0.0000e+00 0.0000e+00
      -15  1    3    3    0    0 +2.3384623649e+01 +2.5290082970e+01 -5.2549820788e+00 3.4888414774e+01 1.7770000000e+00 0.0000e+00 -1.0000e+00
       15  1    3    3    0    0 -2.6487472433e+01 +2.1699227371e+01 +2.1023727823e+01 4.0219367536e+01 1.7770000000e+00 0.0000e+00 -1.0000e+00
       22  1    3    3    0    0 +3.1028487844e+00 -4.6989310340e+01 +3.9923764117e+01 6.1737589021e+01 0.0000000000e+00 0.0000e+00 -1.0000e+00
<mgrwt>
<rscale>  2 0.12500000E+03</rscale>
<asrwt>0</asrwt>
<pdfrwt beam="1">  1       21 0.14157197E-01 0.12500000E+03</pdfrwt>
<pdfrwt beam="2">  1       21 0.59671221E-02 0.12500000E+03</pdfrwt>
<totfact> 0.86884780E+06</totfact>
</mgrwt>
</event>
<event>
 6      0 +9.8758382e+01 1.25000000e+02 7.54677100e-03 1.12640300e-01
       21 -1    0    0  502  501 +0.0000000000e+00 +0.0000000000e+00 +1.6980009094e+01 1.6980009094e+01 0.0000000000e+00 0.0000e+00 -1.0000e+00
       21 -1    0    0  501  502 -0.0000000000e+00 -0.0000000000e+00 -2.3004993569e+02 2.3004993569e+02 0.0000000000e+00 0.0000e+00 -1.0000e+00
       25  2    1    2    0    0 +0.0000000000e+00 +0.0000000000e+00 -2.1306992659e+02 2.4702994478e+02 1.2500000000e+02 0.0000e+00 0.0000e+00
      -15  1    3    3    0    0 +2.7323344582e+01 +2.9985971683e+01 -1.3952363446e+02 1.4531251137e+02 1.7770000000e+00 0.0000e+00 -1.0000e+00
       15  1    3    3    0    0 -7.7570952929e+00 -8.3002198404e+00 -7.1520761424e+01 7.2439238127e+01 1.7770000000e+00 0.0000e+00 -1.0000e+00
       22  1    3    3    0    0 -1.9566249290e+01 -2.1685751843e+01 -2.0255306966e+00 2.9278195279e+01 0.0000000000e+00 0.0000e+00 -1.0000e+00
<mgrwt>
<rscale>  2 0.12500000E+03</rscale>
<asrwt>0</asrwt>
<pdfrwt beam="1">  1       21 0.24970602E-02 0.12500000E+03</pdfrwt>
<pdfrwt beam="2">  1       21 0.33830872E-01 0.12500000E+03</pdfrwt>
<totfact> 0.70386513E+06</totfact>
</mgrwt>
</event>
<event>
 6      0 +9.8758382e+01 1.25000000e+02 7.54677100e-03 1.12640300e-01
       21 -1    0    0  502  501 +0.0000000000e+00 +0.0000000000e+00 +3.0281599216e+01 3.0281599216e+01 0.0000000000e+00 0.0000e+00 1.0000e+00
       21 -1    0    0  501  502 -0.0000000000e+00 -0.0000000000e+00 -1.2899748036e+02 1.2899748036e+02 0.0000000000e+00 0.0000e+00 1.0000e+00
       25  2    1    2    0    0 +0.0000000000e+00 +0.0000000000e+00 -9.8715881141e+01 1.5927907957e+02 1.2500000000e+02 0.0000e+00 0.0000e+00
      -15  1    3    3    0    0 +4.8944488177e+00 -1.2228047966e+01 -5.0713923233e+01 5.2426525014e+01 1.7770000000e+00 0.0000e+00 -1.0000e+00
       15  1    3    3    0    0 +4.0762256863e+01 -1.3558535333e+01 -2.0226486954e+01 4.7514881547e+01 1.7770000000e+00 0.0000e+00 -1.0000e+00
       22  1    3    3    0    0 -4.5656705680e+01 +2.5786583299e+01 -2.7775470956e+01 5.9337673014e+01 0.0000000000e+00 0.0000e+00 -1.0000e+00
<mgrwt>
<rscale>  2 0.12500000E+03</rscale>
<asrwt>0</asrwt>
<pdfrwt beam="1">  1       21 0.44531762E-02 0.12500000E+03</pdfrwt>
<pdfrwt beam="2">  1       21 0.18970218E-01 0.12500000E+03</pdfrwt>
<totfact> 0.83096077E+06</totfact>
</mgrwt>
</event>
<event>
 6      0 +9.8758382e+01 1.25000000e+02 7.54677100e-03 1.12640300e-01
       21 -1    0    0  502  501 +0.0000000000e+00 +0.0000000000e+00 +6.4862468928e+01 6.4862468928e+01 0.0000000000e+00 0.0000e+00 1.0000e+00
       21 -1    0    0  501  502 -0.0000000000e+00 -0.0000000000e+00 -6.0223578667e+01 6.0223578667e+01 0.0000000000e+00 0.0000e+00 1.0000e+00
       25  2    1    2    0    0 +0.0000000000e+00 +0.0000000000e+00 +4.6388902616e+00 1.2508604759e+02 1.2500000000e+02 0.0000e+00 0.0000e+00
      -15  1    3    3    0    0 -1.3168192519e+00 -1.6425876622e+01 -2.4849822100e+00 1.6759364586e+01 1.7770000000e+00 0.0000e+00 -1.0000e+00
       15  1    3    3    0    0 +1.2455192621e+01 -3.7858508982e+01 -2.2174645156e+01 4.5642865185e+01 1.7770000000e+00 0.0000e+00 -1.0000e+00
       22  1    3    3    0    0 -1.1138373369e+01 +5.4284385604e+01 +2.9298517628e+01 6.2683817823e+01 0.0000000000e+00 0.0000e+00 -1.0000e+00
<mgrwt>
<rscale>  2 0.12500000E+03</rscale>
<asrwt>0</asrwt>
<pdfrwt beam="1">  1       21 0.95385984E-02 0.12500000E+03</pdfrwt>
<pdfrwt beam="2">  1       21 0.88564086E-02 0.12500000E+03</pdfrwt>
<totfact> 0.88984026E+06</totfact>
</mgrwt>
</event>
<event>
 6      0 +9.8758382e+01 1.25000000e+02 7.54677100e-03 1.12640300e-01
       21 -1    0    0  502  501 +0.0000000000e+00 +0.0000000000e+00 +1.9840517902e+02 1.9840517902e+02 0.0000000000e+00 0.0000e+00 1.0000e+00
       21 -1    0    0  501  502 -0.0000000000e+00 -0.0000000000e+00 -1.9688246140e+01 1.9688246140e+01 0.0000000000e+00 0.0000e+00 1.0000e+00
       25  2    1    2    0    0 +0.0000000000e+00 +0.0000000000e+00 +1.7871693288e+02 2.1809342516e+02 1.2500000000e+02 0.0000e+00 0.0000e+00
      -15  1    3    3    0    0 -2.9792165529e+01 -3.9733604569e+01 +9.4995182310e+01 1.0720809135e+02 1.7770000000e+00 0.0000e+00 -1.0000e+00
       15  1    3    3    0    0 -1.4136139132e+01 +1.7587498343e+01 +1.8759961664e+01 2.9398034256e+01 1.7770000000e+00 0.0000e+00 -1.0000e+00
       22  1    3    3    0    0 +4.3928304661e+01 +2.2146106226e+01 +6.4961788905e+01 8.1487299557e+01 0.0000000000e+00 0.0000e+00 -1.0000e+00
<mgrwt>
<rscale>  2 0.12500000E+03</rscale>
<asrwt>0</asrwt>
<pdfrwt beam="1">  1       21 0.29177231E-01 0.12500000E+03</pdfrwt>
<pdfrwt beam="2">  1       21 0.28953304E-02 0.12500000E+03</pdfrwt>
<totfact> 0.74255465E+06</totfact>
</mgrwt>
</event>
<event>
 6      0 +9.8758382e+01 1.25000000e+02 7.54677100e-03 1.12640300e-01
       21 -1    0    0  502  501 +0.0000000000e+00 +0.0000000000e+00 +6.7967295881e+01 6.7967295881e+01 0.0000000000e+00 0.0000e+00 1.0000e+00
       21 -1    0    0  501  502 -0.0000000000e+00 -0.0000000000e+00 -5.7472493930e+01 5.7472493930e+01 0.0000000000e+00 0.0000e+00 1.0000e+00
       25  2    1    2    0    0 +0.0000000000e+00 +0.0000000000e+00 +1.0494801951e+01 1.2543978981e+02 1.2500000000e+02 0.0000e+00 0.0000e+00
      -15  1    3    3    0    0 +3.5390337005e+01 +3.8156705933e+01 +2.3525099018e+01 5.7140162528e+01 1.7770000000e+00 0.0000e+00 -1.0000e+00
       15  1    3    3    0    0 -2.2848074761e+01 -4.0226981051e+01 +4.6433741775e+00 4.6529164805e+01 1.7770000000e+00 0.0000e+00 -1.0000e+00
       22  1    3    3    0    0 -1.2542262244e+01 +2.0702751174e+00 -1.7673671244e+01 2.1770462478e+01 0.0000000000e+00 0.0000e+00 -1.0000e+00
<mgrwt>
<rscale>  2 0.12500000E+03</rscale>
<asrwt>0</asrwt>
<pdfrwt beam="1">  1       21 0.99951906E-02 0.12500000E+03</pdfrwt>
<pdfrwt beam="2">  1       21 0.84518373E-02 0.12500000E+03</pdfrwt>
<totfact> 0.88914723E+06</totfact>
</mgrwt>
</event>
<event>
 6      0 +9.8758382e+01 1.25000000e+02 7.54677100e-03 1.12640300e-01
       21 -1    0    0  502  501 +0.0000000000e+00 +0.0000000000e+00 +1.1950980807e+02 1.1950980807e+02 0.0000000000e+00 0.0000e+00 -1.0000e+00
       21 -1    0    0  501  502 -0.0000000000e+00 -0.0000000000e+00 -3.2685601819e+01 3.2685601819e+01 0.0000000000e+00 0.0000e+00 -1.0000e+00
       25  2    1    2    0    0 +0.0000000000e+00 +0.0000000000e+00 +8.6824206248e+01 1.5219540989e+02 1.2500000000e+02 0.0000e+00 0.0000e+00
      -15  1    3    3    0    0 +2.9928834987e+01 +3.1343878525e+01 +2.1091089601e+01 4.8230339769e+01 1.7770000000e+00 0.0000e+00 -1.0000e+00
       15  1    3    3    0    0 -2.8876625052e+01 +1.4573589867e+01 +3.9453046385e+01 5.1048502369e+01 1.7770000000e+00 0.0000e+00 -1.0000e+00
       22  1    3    3    0    0 -1.0522099348e+00 -4.5917468392e+01 +2.6280070258e+01 5.2916567746e+01 0.0000000000e+00 0.0000e+00 -1.0000e+00
<mgrwt>
<rscale>  2 0.12500000E+03</rscale>
<asrwt>0</asrwt>
<pdfrwt beam="1">  1       21 0.17574972E-01 0.12500000E+03</pdfrwt>
<pdfrwt beam="2">  1       21 0.48067062E-02 0.12500000E+03</pdfrwt>
<totfact> 0.84258945E+06</totfact>
</mgrwt>
</event>
<event>
 6      0 +9.8758382e+01 1.25000000e+02 7.54677100e-03 1.12640300e-01
       21 -1    0    0  502  501 +0.0000000000e+00 +0.0000000000e+00 +2.9873475148e+02 2.9873475148e+02 0.0000000000e+00 0.0000e+00 -1.0000e+00
       21 -1    0    0  501  502 -0.0000000000e+00 -0.0000000000e+00 -1.3075981220e+01 1.3075981220e+01 0.0000000000e+00 0.0000e+00 -1.0000e+00
       25  2    1    2    0    0 +0.0000000000e+00 +0.0000000000e+00 +2.8565877026e+02 3.1181073270e+02 1.2500000000e+02 0.0000e+00 0.0000e+00
      -15  1    3    3    0    0 +2.1971284838e+01 +2.8967293394e-01 +2.1138228976e+02 2.1252870728e+02 1.7770000000e+00 0.0000e+00 -1.0000e+00
       15  1    3    3    0    0 -3.2797131146e+01 -2.1054631848e+01 +6.0865876491e+01 7.2296348343e+01 1.7770000000e+00 0.0000e+00 -1.0000e+00
       22  1    3    3    0    0 +1.0825846308e+01 +2.0764958915e+01 +1.3410604007e+01 2.6985677068e+01 0.0000000000e+00 0.0000e+00 -1.0000e+00
<mgrwt>
<rscale>  2 0.12500000E+03</rscale>
<asrwt>0</asrwt>
<pdfrwt beam="1">  1       21 0.43931577E-01 0.12500000E+03</pdfrwt>
<pdfrwt beam="2">  1       21 0.19229386E-02 0.12500000E+03</pdfrwt>
<totfact> 0.62612118E+06</totfact>
</mgrwt>
</event>
<event>
 6      0 +9.8758382e+01 1.25000000e+02 7.54677100e-03 1.12640300e-01
       21 -1    0    0  502  501 +0.0000000000e+00 +0.0000000000e+00 +3.6648933095e+01 3.6648933095e+01 0.0000000000e+00 0.0000e+00 1.0000e+00
       21 -1    0    0  501  502 -0.0000000000e+00 -0.0000000000e+00 -1.0658564029e+02 1.0658564029e+02 0.0000000000e+00 0.0000e+00 1.0000e+00
       25  2    1    2    0    0 +0.0000000000e+00 +0.0000000000e+00 -6.9936707198e+01 1.4323457339e+02 1.2500000000e+02 0.0000e+00 0.0000e+00
      -15  1    3    3    0    0 +1.9287782894e+01 -4.3416703631e+01 -5.1090696998e+01 6.9788579094e+01 1.7770000000e+00 0.0000e+00 -1.0000e+00
       15  1    3    3    0    0 -1.4220433872e+01 -8.4406584566e-01 -2.4643905970e+01 2.8520396511e+01 1.7770000000e+00 0.0000e+00 -1.0000e+00
       22  1    3    3    0    0 -5.0673490224e+00 +4.4260769477e+01 +5.7978957720e+00 4.4925597783e+01 0.0000000000e+00 0.0000e+00 -1.0000e+00
<mgrwt>
<rscale>  2 0.12500000E+03</rscale>
<asrwt>0</asrwt>
<pdfrwt beam="1">  1       21 0.53895490E-02 0.12500000E+03</pdfrwt>
<pdfrwt beam="2">  1       21 0.15674359E-01 0.12500000E+03</pdfrwt>
<totfact> 0.85779413E+06</totfact>
</mgrwt>
</event>
<event>
 6      0 +9.8758382e+01 1.25000000e+02 7.54677100e-03 1.12640300e-01
       21 -1    0    0  502  501 +0.0000000000e+00 +0.0000000000e+00 +3.2620483840e+00 3.2620483840e+00 0.0000000000e+00 0.0000e+00 1.0000e+00
       21 -1    0    0  501  502 -0.0000000000e+00 -0.0000000000e+00 -1.1974837710e+03 1.1974837710e+03 0.0000000000e+00 0.0000e+00 1.0000e+00
       25  2    1    2    0    0 +0.0000000000e+00 +0.0000000000e+00 -1.1942217226e+03 1.2007458194e+03 1.2500000000e+02 0.0000e+00 0.0000e+00
      -15  1    3    3    0    0 -4.4983231264e+01 -2.1573061327e+01 -4.6071852848e+02 4.6341515759e+02 1.7770000000e+00 0.0000e+00 -1.0000e+00
       15  1    3    3    0    0 -9.1521620804e+00 -3.2539600866e+00 -3.7308057874e+01 3.8592735565e+01 1.7770000000e+00 0.0000e+00 -1.0000e+00
       22  1    3    3    0    0 +5.4135393345e+01 +2.4827021414e+01 -6.9619513331e+02 6.9873792329e+02 0.0000000000e+00 0.0000e+00 -1.0000e+00
<mgrwt>
<rscale>  2 0.12500000E+03</rscale>
<asrwt>0</asrwt>
<pdfrwt beam="1">  1       21 0.47971233E-03 0.12500000E+03</pdfrwt>
<pdfrwt beam="2">  1       21 0.17610080E+00 0.12500000E+03</pdfrwt>
<totfact> 0.16008150E+06</totfact>
</mgrwt>
</event>
<event>
 6      0 +9.8758382e+01 1.25000000e+02 7.54677100e-03 1.12640300e-01
       21 -1    0    0  502  501 +0.0000000000e+00 +0.0000000000e+00 +1.8763957580e+02 1.8763957580e+02 0.0000000000e+00 0.0000e+00 -1.0000e+00
       21 -1    0    0  501  502 -0.0000000000e+00 -0.0000000000e+00 -2.0817836447e+01 2.0817836447e+01 0.0000000000e+00 0.0000e+00 -1.0000e+00
       25  2    1    2    0    0 +0.0000000000e+00 +0.0000000000e+00 +1.6682173936e+02 2.0845741225e+02 1.2500000000e+02 0.0000e+00 0.0000e+00
      -15  1    3    3    0    0 +9.6682876321e+00 -2.5766972006e+01 +6.3871349570e+01 6.9570968493e+01 1.7770000000e+00 0.0000e+00 -1.0000e+00
       15  1    3    3    0    0 -3.8207065351e+01 -1.1406780498e+01 +2.2599707894e+01 4.5867188817e+01 1.7770000000e+00 0.0000e+00 -1.0000e+00
       22  1    3    3    0    0 +2.8538777719e+01 +3.7173752504e+01 +8.0350681902e+01 9.3019254948e+01 0.0000000000e+00 0.0000e+00 -1.0000e+00
<mgrwt>
<rscale>  2 0.12500000E+03</rscale>
<asrwt>0</asrwt>
<pdfrwt beam="1">  1       21 0.27594054E-01 0.12500000E+03</pdfrwt>
<pdfrwt beam="2">  1       21 0.30614466E-02 0.12500000E+03</pdfrwt>
<totfact> 0.75602566E+06</totfact>
</mgrwt>
</event>
<event>
 6      0 +9.8758382e+01 1.25000000e+02 7.54677100e-03 1.12640300e-01
       21 -1    0    0  502  501 +0.0000000000e+00 +0.0000000000e+00 +8.0376764376e+02 8.0376764376e+02 0.0000000000e+00 0.0000e+00 1.0000e+00
       21 -1    0    0  501  502 -0.0000000000e+00 -0.0000000000e+00 -4.8599244201e+00 4.8599244201e+00 0.0000000000e+00 0.0000e+00 1.0000e+00
       25  2    1    2    0    0 +0.0000000000e+00 +0.0000000000e+00 +7.9890771934e+02 8.0862756818e+02 1.2500000000e+02 0.0000e+00 0.0000e+00
      -15  1    3    3    0    0 -7.9616055012e+00 -2.8118063785e+01 +3.4938562786e+02 3.5061016437e+02 1.7770000000e+00 0.0000e+00 -1.0000e+00
       15  1    3    3    0    0 -3.6315869053e+01 +8.1385043197e+00 +1.4860419843e+02 1.5320392657e+02 1.7770000000e+00 0.0000e+00 -1.0000e+00
       22  1    3    3    0    0 +4.4277474554e+01 +1.9979559465e+01 +3.0091789305e+02 3.0481347724e+02 0.0000000000e+00 0.0000e+00 -1.0000e+00
<mgrwt>
<rscale>  2 0.12500000E+03</rscale>
<asrwt>0</asrwt>
<pdfrwt beam="1">  1       21 0.11820103E+00 0.12500000E+03</pdfrwt>
<pdfrwt beam="2">  1       21 0.71469532E-03 0.12500000E+03</pdfrwt>
<totfact> 0.27925428E+06</totfact>
</mgrwt>
</event>
<event>
 6      0 +9.8758382e+01 1.25000000e+02 7.54677100e-03 1.12640300e-01
       21 -1    0    0  502  501 +0.0000000000e+00 +0.0000000000e+00 +6.4164518334e+01 6.4164518334e+01 0.0000000000e+00 0.0000e+00 1.0000e+00
       21 -1    0    0  501  502 -0.0000000000e+00 -0.0000000000e+00 -6.0878661625e+01 6.0878661625e+01 0.0000000000e+00 0.0000e+00 1.0000e+00
       25  2    1    2    0    0 +0.0000000000e+00 +0.0000000000e+00 +3.2858567097e+00 1.2504317996e+02 1.2500000000e+02 0.0000e+00 0.0000e+00
      -15  1    3    3    0    0 +4.9239015415e+00 -1.4490776494e+01 +2.0594635675e+01 2.5720111924e+01 1.7770000000e+00 0.0000e+00 -1.0000e+00
       15  1    3    3    0    0 +2.8190635195e+01 +7.1676398118e+00 +2.9534585067e+01 4.1491401727e+01 1.7770000000e+00 0.0000e+00 -1.0000e+00
       22  1    3    3    0    0 -3.3114536736e+01 +7.3231366819e+00 -4.6843364032e+01 5.7831666309e+01 0.0000000000e+00 0.0000e+00 -1.0000e+00
<mgrwt>
<rscale>  2 0.12500000E+03</rscale>
<asrwt>0</asrwt>
<pdfrwt beam="1">  1       21 0.94359586E-02 0.12500000E+03</pdfrwt>
<pdfrwt beam="2">  1       21 0.89527444E-02 0.12500000E+03</pdfrwt>
<totfact> 0.88993112E+06</totfact>
</mgrwt>
</event>
<event>
 6      0 +9.8758382e+01 1.25000000e+02 7.54677100e-03 1.12640300e-01
       21 -1    0    0  502  501 +0.0000000000e+00 +0.0000000000e+00 +2.2610717224e+02 2.2610717224e+02 0.0000000000e+00 0.0000e+00 -1.0000e+00
       21 -1    0    0  501  502 -0.0000000000e+00 -0.0000000000e+00 -1.7276099476e+01 1.7276099476e+01 0.0000000000e+00 0.0000e+00 -1.0000e+00
       25  2    1    2    0    0 +0.0000000000e+00 +0.0000000000e+00 +2.0883107277e+02 2.4338327172e+02 1.2500000000e+02 0.0000e+00 0.0000e+00
      -15  1    3    3    0    0 -1.6195368035e+01 -2.5538504738e+01 +2.1661461652e+01 3.7240862234e+01 1.7770000000e+00 0.0000e+00 -1.0000e+00
       15  1    3    3    0    0 -3.1107641756e+01 +1.7122833523e+01 +5.4798715868e+01 6.5321771204e+01 1.7770000000e+00 0.0000e+00 -1.0000e+00
       22  1    3    3    0    0 +4.7303009791e+01 +8.4156712152e+00 +1.3237089525e+02 1.4082063829e+02 0.0000000000e+00 0.0000e+00 -1.0000e+00
<mgrwt>
<rscale>  2 0.12500000E+03</rscale>
<asrwt>0</asrwt>
<pdfrwt beam="1">  1       21 0.33251053E-01 0.12500000E+03</pdfrwt>
<pdfrwt beam="2">  1       21 0.25406030E-02 0.12500000E+03</pdfrwt>
<totfact> 0.70861550E+06</totfact>
</mgrwt>
</event>
<event>
 6      0 +9.8758382e+01 1.25000000e+02 7.54677100e-03 1.12640300e-01
       21 -1    0    0  502  501 +0.0000000000e+00 +0.0000000000e+00 +4.5305905544e+01 4.5305905544e+01 0.0000000000e+00 0.0000e+00 1.0000e+00
       21 -1    0    0  501  502 -0.0000000000e+00 -0.0000000000e+00 -8.6219444311e+01 8.6219444311e+01 0.0000000000e+00 0.0000e+00 1.0000e+00
       25  2    1    2    0    0 +0.0000000000e+00 +0.0000000000e+00 -4.0913538768e+01 1.3152534986e+02 1.2500000000e+02 0.0000e+00 0.0000e+00
      -15  1    3    3    0    0 +4.5650631091e+01 +1.9654701100e+00 +1.8326314260e+01 4.9263117189e+01 1.7770000000e+00 0.0000e+00 -1.0000e+00
       15  1    3    3    0    0 -5.9636065427e+00 +2.4403472865e+00 +3.7634218467e+00 7.6707868483e+00 1.7770000000e+00 0.0000e+00 -1.0000e+00
       22  1    3    3    0    0 -3.9687024548e+01 -4.4058173965e+00 -6.3003274873e+01 7.4591445818e+01 0.0000000000e+00 0.0000e+00 -1.0000e+00
<mgrwt>
<rscale>  2 0.12500000E+03</rscale>
<asrwt>0</asrwt>
<pdfrwt beam="1">  1       21 0.66626333E-02 0.12500000E+03</pdfrwt>
<pdfrwt beam="2">  1       21 0.12679330E-01 0.12500000E+03</pdfrwt>
<totfact> 0.87821358E+06</totfact>
</mgrwt>
</event>
<event>
 6      0 +9.8758382e+01 1.25000000e+02 7.54677100e-03 1.12640300e-01
       21 -1    0    0  502  501 +0.0000000000e+00 +0.0000000000e+00 +4.4395089541e+02 4.4395089541e+02 0.0000000000e+00 0.0000e+00 1.0000e+00
       21 -1    0    0  501  502 -0.0000000000e+00 -0.0000000000e+00 -8.7988334755e+00 8.7988334755e+00 0.0000000000e+00 0.0000e+00 1.0000e+00
       25  2    1    2    0    0 +0.0000000000e+00 +0.0000000000e+00 +4.3515206193e+02 4.5274972888e+02 1.2500000000e+02 0.0000e+00 0.0000e+00
      -15  1    3    3    0    0 +2.6382639417e+01 -1.7209782069e+01 +1.2342164968e+02 1.2739027279e+02 1.7770000000e+00 0.0000e+00 -1.0000e+00
       15  1    3    3    0    0 -3.8168073755e+00 +4.6287593764e+01 +9.7759923170e+01 1.0824633787e+02 1.7770000000e+00 0.0000e+00 -1.0000e+00
       22  1    3    3    0    0 -2.2565832042e+01 -2.9077811696e+01 +2.1397048909e+02 2.1711311823e+02 0.0000000000e+00 0.0000e+00 -1.0000e+00
<mgrwt>
<rscale>  2 0.12500000E+03</rscale>
<asrwt>0</asrwt>
<pdfrwt beam="1">  1       21 0.65286881E-01 0.12500000E+03</pdfrwt>
<pdfrwt beam="2">  1       21 0.12939464E-02 0.12500000E+03</pdfrwt>
<totfact> 0.49047488E+06</totfact>
</mgrwt>
</event>
<event>
 6      0 +9.8758382e+01 1.25000000e+02 7.54677100e-03 1.12640300e-01
       21 -1    0    0  502  501 +0.0000000000e+00 +0.0000000000e+00 +2.3736186870e+03 2.3736186870e+03 0.0000000000e+00 0.0000e+00 1.0000e+00
       21 -1    0    0  501  502 -0.0000000000e+00 -0.0000000000e+00 -1.6456939868e+00 1.6456939868e+00 0.0000000000e+00 0.0000e+00 1.0000e+00
       25  2    1    2    0    0 +0.0000000000e+00 +0.0000000000e+00 +2.3719729930e+03 2.3752643810e+03 1.2500000000e+02 0.0000e+00 0.0000e+00
      -15  1    3    3    0    0 +1.0904184298e+01 -6.1846598474e+00 +5.5282072299e+01 5.6713459596e+01 1.7770000000e+00 0.0000e+00 -1.0000e+00
       15  1    3    3    0    0 -2.1531158552e+01 +3.2878273588e+00 +1.2940284979e+02 1.3123511672e+02 1.7770000000e+00 0.0000e+00 -1.0000e+00
       22  1    3    3    0    0 +1.0626974254e+01 +2.8968324886e+00 +2.1872880613e+03 2.1873157951e+03 0.0000000000e+00 0.0000e+00 -1.0000e+00
<mgrwt>
<rscale>  2 0.12500000E+03</rscale>
<asrwt>0</asrwt>
<pdfrwt beam="1">  1       21 0.34905918E+00 0.12500000E+03</pdfrwt>
<pdfrwt beam="2">  1       21 0.24201548E-03 0.12500000E+03</pdfrwt>
<totfact> 0.32567793E+05</totfact>
</mgrwt>
</event>
<event>
 6      0 +9.8758382e+01 1.25000000e+02 7.54677100e-03 1.12640300e-01
       21 -1    0    0  502  501 +0.0000000000e+00 +0.0000000000e+00 +7.7845277723e+01 7.7845277723e+01 0.0000000000e+00 0.0000e+00 -1.0000e+00
       21 -1    0    0  501  502 -0.0000000000e+00 -0.0000000000e+00 -5.0179665540e+01 5.0179665540e+01 0.0000000000e+00 0.0000e+00 -1.0000e+00
       25  2    1    2    0    0 +0.0000000000e+00 +0.0000000000e+00 +2.7665612183e+01 1.2802494326e+02 1.2500000000e+02 0.0000e+00 0.0000e+00
      -15  1    3    3    0    0 +2.3129634913e+01 -3.1670564819e+01 -8.0227019454e+00 4.0069017491e+01 1.7770000000e+00 0.0000e+00 -1.0000e+00
       15  1    3    3    0    0 +7.1640530063e+00 -8.4857129611e+00 -1.3520906185e+01 1.7587029681e+01 1.7770000000e+00 0.0000e+00 -1.0000e+00
       22  1    3    3    0    0 -3.0293687920e+01 +4.0156277781e+01 +4.9209220316e+01 7.0368896091e+01 0.0000000000e+00 0.0000e+00 -1.0000e+00
<mgrwt>
<rscale>  2 0.12500000E+03</rscale>
<asrwt>0</asrwt>
<pdfrwt beam="1">  1       21 0.11447835E-01 0.12500000E+03</pdfrwt>
<pdfrwt beam="2">  1       21 0.73793625E-02 0.12500000E+03</pdfrwt>
<totfact> 0.88453280E+06</totfact>
</mgrwt>
</event>
<event>
 6      0 +9.8758382e+01 1.25000000e+02 7.54677100e-03 1.12640300e-01
       21 -1    0    0  502  501 +0.0000000000e+00 +0.0000000000e+00 +1.4484091606e+02 1.4484091606e+02 0.0000000000e+00 0.0000e+00 1.0000e+00
       21 -1    0    0  501  502 -0.0000000000e+00 -0.0000000000e+00 -2.6969243956e+01 2.6969243956e+01 0.0000000000e+00 0.0000e+00 1.0000e+00
       25  2    1    2    0    0 +0.0000000000e+00 +0.0000000000e+00 +1.1787167210e+02 1.7181016001e+02 1.2500000000e+02 0.0000e+00 0.0000e+00
      -15  1    3    3    0    0 -2.5831311860e+01 +6.7062082790e+00 -7.4953347040e+00 2.7777106999e+01 1.7770000000e+00 0.0000e+00 -1.0000e+00
       15  1    3    3    0    0 -1.7460114046e+01 +1.2552272926e+01 +2.4863992286e+01 3.2920980841e+01 1.7770000000e+00 0.0000e+00 -1.0000e+00
       22  1    3    3    0    0 +4.3291425906e+01 -1.9258481205e+01 +1.0050301452e+02 1.1111207218e+02 0.0000000000e+00 0.0000e+00 -1.0000e+00
<mgrwt>
<rscale>  2 0.12500000E+03</rscale>
<asrwt>0</asrwt>
<pdfrwt beam="1">  1       21 0.21300134E-01 0.12500000E+03</pdfrwt>
<pdfrwt beam="2">  1       21 0.39660654E-02 0.12500000E+03</pdfrwt>
<totfact> 0.81077893E+06</totfact>
</mgrwt>
</event>
<event>
 6      0 +9.8758382e+01 1.25000000e+02 7.54677100e-03 1.12640300e-01
       21 -1    0    0  502  501 +0.0000000000e+00 +0.0000000000e+00 +6.4271240348e+01 6.4271240348e+01 0.0000000000e+00 0.0000e+00 1.0000e+00
       21 -1    0    0  501  502 -0.0000000000e+00 -0.0000000000e+00 -6.0777572968e+01 6.0777572968e+01 0.0000000000e+00 0.0000e+00 1.0000e+00
       25  2    1    2    0    0 +0.0000000000e+00 +0.0000000000e+00 +3.4936673793e+00 1.2504881332e+02 1.2500000000e+02 0.0000e+00 0.0000e+00
      -15  1    3    3    0    0 +1.9139239015e+01 +6.9496246155e+00 -1.6326202088e+00 2.0504412455e+01 1.7770000000e+00 0.0000e+00 -1.0000e+00
       15  1    3    3    0    0 +3.0716628827e+01 +2.7521618971e+01 -9.1288361211e+00 4.2278176110e+01 1.7770000000e+00 0.0000e+00 -1.0000e+00
       22  1    3    3    0    0 -4.9855867843e+01 -3.4471243587e+01 +1.4255123709e+01 6.2266224750e+01 0.0000000000e+00 0.0000e+00 -1.0000e+00
<mgrwt>
<rscale>  2 0.12500000E+03</rscale>
<asrwt>0</asrwt>
<pdfrwt beam="1">  1       21 0.94516530E-02 0.12500000E+03</pdfrwt>
<pdfrwt beam="2">  1       21 0.89378783E-02 0.12500000E+03</pdfrwt>
<totfact> 0.88991918E+06</totfact>
</mgrwt>
</event>
<event>
 6      0 +9.8758382e+01 1.25000000e+02 7.54677100e-03 1.12640300e-01
       21 -1    0    0  502  501 +0.0000000000e+00 +0.0000000000e+00 +1.5662355376e+02 1.5662355376e+02 0.0000000000e+00 0.0000e+00 -1.0000e+00
       21 -1    0    0  501  502 -0.0000000000e+00 -0.0000000000e+00 -2.4940373948e+01 2.4940373948e+01 0.0000000000e+00 0.0000e+00 -1.0000e+00
       25  2    1    2    0    0 +0.0000000000e+00 +0.0000000000e+00 +1.3168317982e+02 1.8156392771e+02 1.2500000000e+02 0.0000e+00 0.0000e+00
      -15  1    3    3    0    0 +7.4487288698e+00 +1.7797488933e+01 -5.8312198344e+00 2.0233512494e+01 1.7770000000e+00 0.0000e+00 -1.0000e+00
       15  1    3    3    0    0 -1.6480378843e+01 +2.3714953377e+01 +1.0179175931e+02 1.0582401378e+02 1.7770000000e+00 0.0000e+00 -1.0000e+00
       22  1    3    3    0    0 +9.0316499729e+00 -4.1512442310e+01 +3.5722640354e+01 5.5506401447e+01 0.0000000000e+00 0.0000e+00 -1.0000e+00
<mgrwt>
<rscale>  2 0.12500000E+03</rscale>
<asrwt>0</asrwt>
<pdfrwt beam="1">  1       21 0.23032875E-01 0.12500000E+03</pdfrwt>
<pdfrwt beam="2">  1       21 0.36677022E-02 0.12500000E+03</pdfrwt>
<totfact> 0.79567619E+06</totfact>
</mgrwt>
</event>
<event>
 6      0 +9.8758382e+01 1.25000000e+02 7.54677100e-03 1.12640300e-01
       21 -1    0    0  502  501 +0.0000000000e+00 +0.0000000000e+00 +4.5083752325e+01 4.5083752325e+01 0.0000000000e+00 0.0000e+00 -1.0000e+00
       21 -1    0    0  501  502 -0.0000000000e+00 -0.0000000000e+00 -8.6644296416e+01 8.6644296416e+01 0.0000000000e+00 0.0000e+00 -1.0000e+00
       25  2    1    2    0    0 +0.0000000000e+00 +0.0000000000e+00 -4.1560544091e+01 1.3172804874e+02 1.2500000000e+02 0.0000e+00 0.0000e+00
      -15  1    3    3    0    0 -2.3866071059e+01 -2.1037196794e+01 -1.5970490730e+01 3.5642212332e+01 1.7770000000e+00 0.0000e+00 -1.0000e+00
       15  1    3    3    0    0 -1.1542023539e+01 +9.1896056754e+00 -4.9544228580e+01 5.1724805214e+01 1.7770000000e+00 0.0000e+00 -1.0000e+00
       22  1    3    3    0    0 +3.5408094598e+01 +1.1847591119e+01 +2.3954175218e+01 4.4361031196e+01 0.0000000000e+00 0.0000e+00 -1.0000e+00
<mgrwt>
<rscale>  2 0.12500000E+03</rscale>
<asrwt>0</asrwt>
<pdfrwt beam="1">  1       21 0.66299636E-02 0.12500000E+03</pdfrwt>
<pdfrwt beam="2">  1       21 0.12741808E-01 0.12500000E+03</pdfrwt>
<totfact> 0.87784949E+06</totfact>
</mgrwt>
</event>
<event>
 6      0 +9.8758382e+01 1.25000000e+02 7.54677100e-03 1.12640300e-01
       21 -1    0    0  502  501 +0.0000000000e+00 +0.0000000000e+00 +3.0037032008e+00 3.0037032008e+00 0.0000000000e+00 0.0000e+00 -1.0000e+00
       21 -1    0    0  501  502 -0.0000000000e+00 -0.0000000000e+00 -1.3004780229e+03 1.3004780229e+03 0.0000000000e+00 0.0000e+00 -1.0000e+00
       25  2    1    2    0    0 +0.0000000000e+00 +0.0000000000e+00 -1.2974743197e+03 1.3034817261e+03 1.2500000000e+02 0.0000e+00 0.0000e+00
      -15  1    3    3    0    0 +5.0688818574e+00 -7.6954844386e+00 -5.5211244208e+02 5.5219219523e+02 1.7770000000e+00 0.0000e+00 -1.0000e+00
       15  1    3    3    0    0 -3.7354624387e+01 +1.0164239807e+01 -6.3738695337e+02 6.3856398723e+02 1.7770000000e+00 0.0000e+00 -1.0000e+00
       22  1    3    3    0    0 +3.2285742529e+01 -2.4687553686e+00 -1.0797492443e+02 1.1272554382e+02 0.0000000000e+00 0.0000e+00 -1.0000e+00
<mgrwt>
<rscale>  2 0.12500000E+03</rscale>
<asrwt>0</asrwt>
<pdfrwt beam="1">  1       21 0.44172144E-03 0.12500000E+03</pdfrwt>
<pdfrwt beam="2">  1       21 0.19124660E+00 0.12500000E+03</pdfrwt>
<totfact> 0.13896781E+06</totfact>
</mgrwt>
</event>
<event>
 6      0 +9.8758382e+01 1.25000000e+02 7.54677100e-03 1.12640300e-01
       21 -1    0    0  502  501 +0.0000000000e+00 +0.0000000000e+00 +4.8684011281e+02 4.8684011281e+02 0.0000000000e+00 0.0000e+00 1.0000e+00
       21 -1    0    0  501  502 -0.0000000000e+00 -0.0000000000e+00 -8.0236814864e+00 8.0236814864e+00 0.0000000000e+00 0.0000e+00 1.0000e+00
       25  2    1    2    0    0 +0.0000000000e+00 +0.0000000000e+00 +4.7881643132e+02 4.9486379429e+02 1.2500000000e+02 0.0000e+00 0.0000e+00
      -15  1    3    3    0    0 -1.8340414326e+01 -9.4418817312e+00 +1.3896993519e+01 2.4935999804e+01 1.7770000000e+00 0.0000e+00 -1.0000e+00
       15  1    3    3    0    0 -1.7272002733e+01 -8.7817020297e+00 +6.0904245130e+01 6.3936884290e+01 1.7770000000e+00 0.0000e+00 -1.0000e+00
       22  1    3    3    0    0 +3.5612417059e+01 +1.8223583761e+01 +4.0401519272e+02 4.0599091025e+02 0.0000000000e+00 0.0000e+00 -1.0000e+00
<mgrwt>
<rscale>  2 0.12500000E+03</rscale>
<asrwt>0</asrwt>
<pdfrwt beam="1">  1       21 0.71594114E-01 0.12500000E+03</pdfrwt>
<pdfrwt beam="2">  1       21 0.11799535E-02 0.12500000E+03</pdfrwt>
<totfact> 0.45710441E+06</totfact>
</mgrwt>
</event>
<event>
 6      0 +9.8758382e+01 1.25000000e+02 7.54677100e-03 1.12640300e-01
       21 -1    0    0  502  501 +0.0000000000e+00 +0.0000000000e+00 +3.1011333808e+02 3.1011333808e+02 0.0000000000e+00 0.0000e+00 -1.0000e+00
       21 -1    0    0  501  502 -0.0000000000e+00 -0.0000000000e+00 -1.2596201196e+01 1.2596201196e+01 0.0000000000e+00 0.0000e+00 -1.0000e+00
       25  2    1    2    0    0 +0.0000000000e+00 +0.0000000000e+00 +2.9751713689e+02 3.2270953928e+02 1.2500000000e+02 0.0000e+00 0.0000e+00
      -15  1    3    3    0    0 -5.1246041165e+00 +1.6327413065e+01 +2.4973930411e+01 3.0326571087e+01 1.7770000000e+00 0.0000e+00 -1.0000e+00
       15  1    3    3    0    0 +1.2033908082e+01 +2.7958658363e+01 +2.2494749874e+02 2.2700448550e+02 1.7770000000e+00 0.0000e+00 -1.0000e+00
       22  1    3    3    0    0 -6.9093039652e+00 -4.4286071428e+01 +4.7595707751e+01 6.5378482700e+01 0.0000000000e+00 0.0000e+00 -1.0000e+00
<mgrwt>
<rscale>  2 0.12500000E+03</rscale>
<asrwt>0</asrwt>
<pdfrwt beam="1">  1       21 0.45604898E-01 0.12500000E+03</pdfrwt>
<pdfrwt beam="2">  1       21 0.18523827E-02 0.12500000E+03</pdfrwt>
<totfact> 0.61410353E+06</totfact>
</mgrwt>
</event>
<event>
 6      0 +9.8758382e+01 1.25000000e+02 7.54677100e-03 1.12640300e-01
       21 -1    0    0  502  501 +0.0000000000e+00 +0.0000000000e+00 +1.1156936252e+01 1.1156936252e+01 0.0000000000e+00 0.0000e+00 1.0000e+00
       21 -1    0    0  501  502 -0.0000000000e+00 -0.0000000000e+00 -3.5011851925e+02 3.5011851925e+02 0.0000000000e+00 0.0000e+00 1.0000e+00
       25  2    1    2    0    0 +0.0000000000e+00 +0.0000000000e+00 -3.3896158300e+02 3.6127545550e+02 1.2500000000e+02 0.0000e+00 0.0000e+00
      -15  1    3    3    0    0 -3.6892896675e+01 -1.0708725166e+01 -1.1791694883e+02 1.2402954152e+02 1.7770000000e+00 0.0000e+00 -1.0000e+00
       15  1    3    3    0    0 +1.5806897262e+01 +1.0338970416e+01 -4.2674877474e+00 1.9445346256e+01 1.7770000000e+00 0.0000e+00 -1.0000e+00
       22  1    3    3    0    0 +2.1085999413e+01 +3.6975475005e-01 -2.1677714646e+02 2.1780056776e+02 0.0000000000e+00 0.0000e+00 -1.0000e+00
<mgrwt>
<rscale>  2 0.12500000E+03</rscale>
<asrwt>0</asrwt>
<pdfrwt beam="1">  1       21 0.16407262E-02 0.12500000E+03</pdfrwt>
<pdfrwt beam="2">  1       21 0.51488007E-01 0.12500000E+03</pdfrwt>
<totfact> 0.57386811E+06</totfact>
</mgrwt>
</event>
<event>
 6      0 +9.8758382e+01 1.25000000e+02 7.54677100e-03 1.12640300e-01
       21 -1    0    0  502  501 +0.0000000000e+00 +0.0000000000e+00 +3.0276555383e+01 3.0276555383e+01 0.0000000000e+00 0.0000e+00 -1.0000e+00
       21 -1    0    0  501  502 -0.0000000000e+00 -0.0000000000e+00 -1.2901897031e+02 1.2901897031e+02 0.0000000000e+00 0.0000e+00 -1.0000e+00
       25  2    1    2    0    0 +0.0000000000e+00 +0.0000000000e+00 -9.8742414928e+01 1.5929552569e+02 1.2500000000e+02 0.0000e+00 0.0000e+00
      -15  1    3    3    0    0 +2.1195628590e+00 -2.7359203301e+01 -7.4981627000e+01 7.9865015298e+01 1.7770000000e+00 0.0000e+00 -1.0000e+00
       15  1    3    3    0    0 -1.6773821852e+01 -2.0006654247e+01 -9.4993344310e+00 2.7839224079e+01 1.7770000000e+00 0.0000e+00 -1.0000e+00
       22  1    3    3    0    0 +1.4654258993e+01 +4.7365857548e+01 -1.4261453500e+01 5.1591286318e+01 0.0000000000e+00 0.0000e+00 -1.0000e+00
<mgrwt>
<rscale>  2 0.12500000E+03</rscale>
<asrwt>0</asrwt>
<pdfrwt beam="1">  1       21 0.44524346E-02 0.12500000E+03</pdfrwt>
<pdfrwt beam="2">  1       21 0.18973378E-01 0.12500000E+03</pdfrwt>
<totfact> 0.83093398E+06</totfact>
</mgrwt>
</event>
<event>
 6      0 +9.8758382e+01 1.25000000e+02 7.54677100e-03 1.12640300e-01
       21 -1    0    0  502  501 +0.0000000000e+00 +0.0000000000e+00 +1.4436064759e+02 1.4436064759e+02 0.0000000000e+00 0.0000e+00 -1.0000e+00
       21 -1    0    0  501  502 -0.0000000000e+00 -0.0000000000e+00 -2.7058967006e+01 2.7058967006e+01 0.0000000000e+00 0.0000e+00 -1.0000e+00
       25  2    1    2    0    0 +0.0000000000e+00 +0.0000000000e+00 +1.1730168058e+02 1.7141961459e+02 1.2500000000e+02 0.0000e+00 0.0000e+00
      -15  1    3    3    0    0 +3.7567678546e+01 -5.2547856602e+00 +4.7435328150e+00 3.8270119887e+01 1.7770000000e+00 0.0000e+00 -1.0000e+00
       15  1    3    3    0    0 -2.3212002109e+00 +8.4098696167e+00 -5.1166413541e+00 1.0268964172e+01 1.7770000000e+00 0.0000e+00 -1.0000e+00
       22  1    3    3    0    0 -3.5246478335e+01 -3.1550839565e+00 +1.1767478912e+02 1.2288053054e+02 0.0000000000e+00 0.0000e+00 -1.0000e+00
<mgrwt>
<rscale>  2 0.12500000E+03</rscale>
<asrwt>0</asrwt>
<pdfrwt beam="1">  1       21 0.21229507E-01 0.12500000E+03</pdfrwt>
<pdfrwt beam="2">  1       21 0.39792599E-02 0.12500000E+03</pdfrwt>
<totfact> 0.81139492E+06</totfact>
</mgrwt>
</event>
<event>
 6      0 +9.8758382e+01 1.25000000e+02 7.54677100e-03 1.12640300e-01
       21 -1    0    0  502  501 +0.0000000000e+00 +0.0000000000e+00 +1.5949428154e+00 1.5949428154e+00 0.0000000000e+00 0.0000e+00 -1.0000e+00
       21 -1    0    0  501  502 -0.0000000000e+00 -0.0000000000e+00 -2.4491473690e+03 2.4491473690e+03 0.0000000000e+00 0.0000e+00 -1.0000e+00
       25  2    1    2    0    0 +0.0000000000e+00 +0.0000000000e+00 -2.4475524262e+03 2.4507423119e+03 1.2500000000e+02 0.0000e+00 0.0000e+00
      -15  1    3    3    0    0 -5.1855750589e+01 +3.8693181000e+00 -1.3795443874e+03 1.3805252135e+03 1.7770000000e+00 0.0000e+00 -1.0000e+00
       15  1    3    3    0    0 +2.6687360504e+01 -3.3500528981e+00 -8.9310832324e+02 8.9351500986e+02 1.7770000000e+00 0.0000e+00 -1.0000e+00
       22  1    3    3    0    0 +2.5168390085e+01 -5.1926520193e-01 -1.7489968896e+02 1.7670206194e+02 0.0000000000e+00 0.0000e+00 -1.0000e+00
<mgrwt>
<rscale>  2 0.12500000E+03</rscale>
<asrwt>0</asrwt>
<pdfrwt beam="1">  1       21 0.23455023E-03 0.12500000E+03</pdfrwt>
<pdfrwt beam="2">  1       21 0.36016901E+00 0.12500000E+03</pdfrwt>
<totfact> 0.29374765E+05</totfact>
</mgrwt>
</event>
<event>
 6      0 +9.8758382e+01 1.25000000e+02 7.54677100e-03 1.12640300e-01
       21 -1    0    0  502  501 +0.0000000000e+00 +0.0000000000e+00 +3.6535225616e+02 3.6535225616e+02 0.0000000000e+00 0.0000e+00 -1.0000e+00
       21 -1    0    0  501  502 -0.0000000000e+00 -0.0000000000e+00 -1.0691736356e+01 1.0691736356e+01 0.0000000000e+00 0.0000e+00 -1.0000e+00
       25  2    1    2    0    0 +0.0000000000e+00 +0.0000000000e+00 +3.5466051981e+02 3.7604399252e+02 1.2500000000e+02 0.0000e+00 0.0000e+00
      -15  1    3    3    0    0 +3.9054757310e+00 +4.7571936263e+01 +1.8703564568e+02 1.9303842194e+02 1.7770000000e+00 0.0000e+00 -1.0000e+00
       15  1    3    3    0    0 +2.2120922841e+01 -4.0564800680e+01 +9.8543019544e+01 1.0885183835e+02 1.7770000000e+00 0.0000e+00 -1.0000e+00
       22  1    3    3    0    0 -2.6026398572e+01 -7.0071355833e+00 +6.9081854604e+01 7.4153732254e+01 0.0000000000e+00 0.0000e+00 -1.0000e+00
<mgrwt>
<rscale>  2 0.12500000E+03</rscale>
<asrwt>0</asrwt>
<pdfrwt beam="1">  1       21 0.53728265E-01 0.12500000E+03</pdfrwt>
<pdfrwt beam="2">  1       21 0.15723144E-02 0.12500000E+03</pdfrwt>
<totfact> 0.55928277E+06</totfact>
</mgrwt>
</event>
<event>
 6      0 +9.8758382e+01 1.25000000e+02 7.54677100e-03 1.12640300e-01
       21 -1    0    0  502  501 +0.0000000000e+00 +0.0000000000e+00 +5.5897423490e+01 5.5897423490e+01 0.0000000000e+00 0.0000e+00 -1.0000e+00
       21 -1    0    0  501  502 -0.0000000000e+00 -0.0000000000e+00 -6.9882469640e+01 6.9882469640e+01 0.0000000000e+00 0.0000e+00 -1.0000e+00
       25  2    1    2    0    0 +0.0000000000e+00 +0.0000000000e+00 -1.3985046149e+01 1.2577989313e+02 1.2500000000e+02 0.0000e+00 0.0000e+00
      -15  1    3    3    0    0 +4.9974510566e+01 -1.2747758441e+01 -3.6330025835e+00 5.1733098576e+01 1.7770000000e+00 0.0000e+00 -1.0000e+00
       15  1    3    3    0    0 -1.2943899647e+01 +2.8646151588e+01 -1.2049323127e+01 3.3711874106e+01 1.7770000000e+00 0.0000e+00 -1.0000e+00
       22  1    3    3    0    0 -3.7030610918e+01 -1.5898393148e+01 +1.6972795612e+00 4.0334920448e+01 0.0000000000e+00 0.0000e+00 -1.0000e+00
<mgrwt>
<rscale>  2 0.12500000E+03</rscale>
<asrwt>0</asrwt>
<pdfrwt beam="1">  1       21 0.82202094E-02 0.12500000E+03</pdfrwt>
<pdfrwt beam="2">  1       21 0.10276834E-01 0.12500000E+03</pdfrwt>
<totfact> 0.88851772E+06</totfact>
</mgrwt>
</event>
<event>
 6      0 +9.8758382e+01 1.25000000e+02 7.54677100e-03 1.12640300e-01
       21 -1    0    0  502  501 +0.0000000000e+00 +0.0000000000e+00 +2.9812732075e+02 2.9812732075e+02 0.0000000000e+00 0.0000e+00 1.0000e+00
       21 -1    0    0  501  502 -0.0000000000e+00 -0.0000000000e+00 -1.3102623370e+01 1.3102623370e+01 0.0000000000e+00 0.0000e+00 1.0000e+00
       25  2    1    2    0    0 +0.0000000000e+00 +0.0000000000e+00 +2.8502469738e+02 3.1122994412e+02 1.2500000000e+02 0.0000e+00 0.0000e+00
      -15  1    3    3    0    0 -1.4429919414e+01 -3.7971060493e+01 +3.8307461641e+01 5.5862718835e+01 1.7770000000e+00 0.0000e+00 -1.0000e+00
       15  1    3    3    0    0 -1.4842789389e+00 +3.1364898154e+01 +5.8983378881e+01 6.6844271507e+01 1.7770000000e+00 0.0000e+00 -1.0000e+00
       22  1    3    3    0    0 +1.5914198353e+01 +6.6061623393e+00 +1.8773385685e+02 1.8852295377e+02 0.0000000000e+00 0.0000e+00 -1.0000e+00
<mgrwt>
<rscale>  2 0.12500000E+03</rscale>
<asrwt>0</asrwt>
<pdfrwt beam="1">  1       21 0.43842249E-01 0.12500000E+03</pdfrwt>
<pdfrwt beam="2">  1       21 0.19268566E-02 0.12500000E+03</pdfrwt>
<totfact> 0.62677030E+06</totfact>
</mgrwt>
</event>
<event>
 6      0 +9.8758382e+01 1.25000000e+02 7.54677100e-03 1.12640300e-01
       21 -1    0    0  502  501 +0.0000000000e+00 +0.0000000000e+00 +2.5428373940e+01 2.5428373940e+01 0.0000000000e+00 0.0000e+00 1.0000e+00
       21 -1    0    0  501  502 -0.0000000000e+00 -0.0000000000e+00 -1.5361776609e+02 1.5361776609e+02 0.0000000000e+00 0.0000e+00 1.0000e+00
       25  2    1    2    0    0 +0.0000000000e+00 +0.0000000000e+00 -1.2818939215e+02 1.7904614003e+02 1.2500000000e+02 0.0000e+00 0.0000e+00
      -15  1    3    3    0    0 -1.4406330896e+01 -2.6525686441e+01 -4.9600620235e+01 5.8090736505e+01 1.7770000000e+00 0.0000e+00 -1.0000e+00
       15  1    3    3    0    0 +3.6994110814e+01 -6.2464735248e+00 -5.8137997193e+00 3.8007113316e+01 1.7770000000e+00 0.0000e+00 -1.0000e+00
       22  1    3    3    0    0 -2.2587779918e+01 +3.2772159966e+01 -7.2774972196e+01 8.2948290209e+01 0.0000000000e+00 0.0000e+00 -1.0000e+00
<mgrwt>
<rscale>  2 0.12500000E+03</rscale>
<asrwt>0</asrwt>
<pdfrwt beam="1">  1       21 0.37394667E-02 0.12500000E+03</pdfrwt>
<pdfrwt beam="2">  1       21 0.22590848E-01 0.12500000E+03</pdfrwt>
<totfact> 0.79952610E+06</totfact>
</mgrwt>
</event>
<event>
 6      0 +9.8758382e+01 1.25000000e+02 7.54677100e-03 1.12640300e-01
       21 -1    0    0  502  501 +0.0000000000e+00 +0.0000000000e+00 +3.8759960862e+01 3.8759960862e+01 0.0000000000e+00 0.0000e+00 1.0000e+00
       21 -1    0    0  501  502 -0.0000000000e+00 -0.0000000000e+00 -1.0078054552e+02 1.0078054552e+02 0.0000000000e+00 0.0000e+00 1.0000e+00
       25  2    1    2    0    0 +0.0000000000e+00 +0.0000000000e+00 -6.2020584657e+01 1.3954050638e+02 1.2500000000e+02 0.0000e+00 0.0000e+00
      -15  1    3    3    0    0 +2.9012479759e+01 -4.1976034726e+00 -2.1553098716e+01 3.6428527968e+01 1.7770000000e+00 0.0000e+00 -1.0000e+00
       15  1    3    3    0    0 -2.6544031133e+01 -3.6394614365e+01 +9.1695555780e-01 4.5090487690e+01 1.7770000000e+00 0.0000e+00 -1.0000e+00
       22  1    3    3    0    0 -2.4684486257e+00 +4.0592217838e+01 -4.1384441500e+01 5.8021490724e+01 0.0000000000e+00 0.0000e+00 -1.0000e+00
<mgrwt>
<rscale>  2 0.12500000E+03</rscale>
<asrwt>0</asrwt>
<pdfrwt beam="1">  1       21 0.56999943E-02 0.12500000E+03</pdfrwt>
<pdfrwt beam="2">  1       21 0.14820668E-01 0.12500000E+03</pdfrwt>
<totfact> 0.86419714E+06</totfact>
</mgrwt>
</event>
<event>
 6      0 +9.8758382e+01 1.25000000e+02 7.54677100e-03 1.12640300e-01
       21 -1    0    0  502  501 +0.0000000000e+00 +0.0000000000e+00 +3.1134206896e+02 3.1134206896e+02 0.0000000000e+00 0.0000e+00 1.0000e+00
       21 -1    0    0  501  502 -0.0000000000e+00 -0.0000000000e+00 -1.2546489503e+01 1.2546489503e+01 0.0000000000e+00 0.0000e+00 1.0000e+00
       25  2    1    2    0    0 +0.0000000000e+00 +0.0000000000e+00 +2.9879557946e+02 3.2388855846e+02 1.2500000000e+02 0.0000e+00 0.0000e+00
      -15  1    3    3    0    0 -1.1172720666e+01 +5.9445353330e+00 +4.5729736433e+01 4.7481930359e+01 1.7770000000e+00 0.0000e+00 -1.0000e+00
       15  1    3    3    0    0 +9.4643945497e+00 -4.1063413939e+01 +2.3116924326e+02 2.3498543676e+02 1.7770000000e+00 0.0000e+00 -1.0000e+00
       22  1    3    3    0    0 +1.7083261166e+00 +3.5118878606e+01 +2.1896599800e+01 4.1421191382e+01 0.0000000000e+00 0.0000e+00 -1.0000e+00
<mgrwt>
<rscale>  2 0.12500000E+03</rscale>
<asrwt>0</asrwt>
<pdfrwt beam="1">  1       21 0.45785593E-01 0.12500000E+03</pdfrwt>
<pdfrwt beam="2">  1       21 0.18450722E-02 0.12500000E+03</pdfrwt>
<totfact> 0.61282169E+06</totfact>
</mgrwt>
</event>
<event>
 6      0 +9.8758382e+01 1.25000000e+02 7.54677100e-03 1.12640300e-01
       21 -1    0    0  502  501 +0.0000000000e+00 +0.0000000000e+00 +6.5976580466e+00 6.5976580466e+00 0.0000000000e+00 0.0000e+00 1.0000e+00
       21 -1    0    0  501  502 -0.0000000000e+00 -0.0000000000e+00 -5.9206615020e+02 5.9206615020e+02 0.0000000000e+00 0.0000e+00 1.0000e+00
       25  2    1    2    0    0 +0.0000000000e+00 +0.0000000000e+00 -5.8546849215e+02 5.9866380824e+02 1.2500000000e+02 0.0000e+00 0.0000e+00
      -15  1    3    3    0    0 -7.8080214762e+00 -2.6932192457e+00 -1.0756597305e+01 1.3677746301e+01 1.7770000000e+00 0.0000e+00 -1.0000e+00
       15  1    3    3    0    0 -1.9324098958e+01 +3.3319367964e+01 -8.2383907848e+01 9.0960799707e+01 1.7770000000e+00 0.0000e+00 -1.0000e+00
       22  1    3    3    0    0 +2.7132120434e+01 -3.0626148718e+01 -4.9232798707e+02 4.9402526231e+02 0.0000000000e+00 0.0000e+00 -1.0000e+00
<mgrwt>
<rscale>  2 0.12500000E+03</rscale>
<asrwt>0</asrwt>
<pdfrwt beam="1">  1       21 0.97024361E-03 0.12500000E+03</pdfrwt>
<pdfrwt beam="2">  1       21 0.87068571E-01 0.12500000E+03</pdfrwt>
<totfact> 0.38610271E+06</totfact>
</mgrwt>
</event>
<event>
 6      0 +9.8758382e+01 1.25000000e+02 7.54677100e-03 1.12640300e-01
       21 -1    0    0  502  501 +0.0000000000e+00 +0.0000000000e+00 +8.5930423426e+00 8.5930423426e+00 0.0000000000e+00 0.0000e+00 1.0000e+00
       21 -1    0    0  501  502 -0.0000000000e+00 -0.0000000000e+00 -4.5458288744e+02 4.5458288744e+02 0.0000000000e+00 0.0000e+00 1.0000e+00
       25  2    1    2    0    0 +0.0000000000e+00 +0.0000000000e+00 -4.4598984510e+02 4.6317592979e+02 1.2500000000e+02 0.0000e+00 0.0000e+00
      -15  1    3    3    0    0 +8.2018299533e+00 +1.7750430485e+01 -1.5940528021e+02 1.6060992773e+02 1.7770000000e+00 0.0000e+00 -1.0000e+00
       15  1    3    3    0    0 -1.1603463241e+01 +3.3194100654e+01 -5.4152562623e+01 6.4592154672e+01 1.7770000000e+00 0.0000e+00 -1.0000e+00
       22  1    3    3    0    0 +3.4016332879e+00 -5.0944531140e+01 -2.3243200220e+02 2.3797384732e+02 0.0000000000e+00 0.0000e+00 -1.0000e+00
<mgrwt>
<rscale>  2 0.12500000E+03</rscale>
<asrwt>0</asrwt>
<pdfrwt beam="1">  1       21 0.12636828E-02 0.12500000E+03</pdfrwt>
<pdfrwt beam="2">  1       21 0.66850419E-01 0.12500000E+03</pdfrwt>
<totfact> 0.48193776E+06</totfact>
</mgrwt>
</event>
<event>
 6      0 +9.8758382e+01 1.25000000e+02 7.54677100e-03 1.12640300e-01
       21 -1    0    0  502  501 +0.0000000000e+00 +0.0000000000e+00 +2.1775000458e+02 2.1775000458e+02 0.0000000000e+00 0.0000e+00 1.0000e+00
       21 -1    0    0  501  502 -0.0000000000e+00 -0.0000000000e+00 -1.7939150025e+01 1.7939150025e+01 0.0000000000e+00 0.0000e+00 1.0000e+00
       25  2    1    2    0    0 +0.0000000000e+00 +0.0000000000e+00 +1.9981085455e+02 2.3568915460e+02 1.2500000000e+02 0.0000e+00 0.0000e+00
      -15  1    3    3    0    0 -2.4234421321e+01 +3.0276743163e+00 +1.0779840548e+01 2.6755124365e+01 1.7770000000e+00 0.0000e+00 -1.0000e+00
       15  1    3    3    0    0 +3.3815053759e+01 +2.6669060153e+00 +1.9759253577e+01 3.9295751417e+01 1.7770000000e+00 0.0000e+00 -1.0000e+00
       22  1    3    3    0    0 -9.5806324380e+00 -5.6945803315e+00 +1.6927176042e+02 1.6963827882e+02 0.0000000000e+00 0.0000e+00 -1.0000e+00
<mgrwt>
<rscale>  2 0.12500000E+03</rscale>
<asrwt>0</asrwt>
<pdfrwt beam="1">  1       21 0.32022058E-01 0.12500000E+03</pdfrwt>
<pdfrwt beam="2">  1       21 0.26381104E-02 0.12500000E+03</pdfrwt>
<totfact> 0.71877645E+06</totfact>
</mgrwt>
</event>
<event>
 6      0 +9.8758382e+01 1.25000000e+02 7.54677100e-03 1.12640300e-01
       21 -1    0    0  502  501 +0.0000000000e+00 +0.0000000000e+00 +4.0204288403e+01 4.0204288403e+01 0.0000000000e+00 0.0000e+00 -1.0000e+00
       21 -1    0    0  501  502 -0.0000000000e+00 -0.0000000000e+00 -9.7160033298e+01 9.7160033298e+01 0.0000000000e+00 0.0000e+00 -1.0000e+00
       25  2    1    2    0    0 +0.0000000000e+00 +0.0000000000e+00 -5.6955744895e+01 1.3736432170e+02 1.2500000000e+02 0.0000e+00 0.0000e+00
      -15  1    3    3    0    0 -1.7090253665e+01 -6.6018167957e-01 -3.9762502401e-01 1.7199664092e+01 1.7770000000e+00 0.0000e+00 -1.0000e+00
       15  1    3    3    0    0 -3.2534150603e+01 -3.1211955984e+01 -1.3352748853e+01 4.7054338618e+01 1.7770000000e+00 0.0000e+00 -1.0000e+00
       22  1    3    3    0    0 +4.9624404269e+01 +3.1872137664e+01 -4.3205371019e+01 7.3110318992e+01 0.0000000000e+00 0.0000e+00 -1.0000e+00
<mgrwt>
<rscale>  2 0.12500000E+03</rscale>
<asrwt>0</asrwt>
<pdfrwt beam="1">  1       21 0.59123954E-02 0.12500000E+03</pdfrwt>
<pdfrwt beam="2">  1       21 0.14288240E-01 0.12500000E+03</pdfrwt>
<totfact> 0.86795009E+06</totfact>
</mgrwt>
</event>
<event>
 6      0 +9.8758382e+01 1.25000000e+02 7.54677100e-03 1.12640300e-01
       21 -1    0    0  502  501 +0.0000000000e+00 +0.0000000000e+00 +8.4974353711e+01 8.4974353711e+01 0.0000000000e+00 0.0000e+00 1.0000e+00
       21 -1    0    0  501  502 -0.0000000000e+00 -0.0000000000e+00 -4.5969752395e+01 4.5969752395e+01 0.0000000000e+00 0.0000e+00 1.0000e+00
       25  2    1    2    0    0 +0.0000000000e+00 +0.0000000000e+00 +3.9004601316e+01 1.3094410611e+02 1.2500000000e+02 0.0000e+00 0.0000e+00
      -15  1    3    3    0    0 -1.0825736754e+01 +1.1781136718e+01 -4.3858387041e+00 1.6684875450e+01 1.7770000000e+00 0.0000e+00 -1.0000e+00
       15  1    3    3    0    0 -3.3153232792e+01 -3.6394585819e+01 +2.4435708439e+00 4.9323741636e+01 1.7770000000e+00 0.0000e+00 -1.0000e+00
       22  1    3    3    0    0 +4.3978969546e+01 +2.4613449101e+01 +4.0946869175e+01 6.4935489019e+01 0.0000000000e+00 0.0000e+00 -1.0000e+00
<mgrwt>
<rscale>  2 0.12500000E+03</rscale>
<asrwt>0</asrwt>
<pdfrwt beam="1">  1       21 0.12496228E-01 0.12500000E+03</pdfrwt>
<pdfrwt beam="2">  1       21 0.67602577E-02 0.12500000E+03</pdfrwt>
<totfact> 0.87926192E+06</totfact>
</mgrwt>
</event>
<event>
 6      0 +9.8758382e+01 1.25000000e+02 7.54677100e-03 1.12640300e-01
       21 -1    0    0  502  501 +0.0000000000e+00 +0.0000000000e+00 +1.7490940082e+02 1.7490940082e+02 0.0000000000e+00 0.0000e+00 -1.0000e+00
       21 -1    0    0  501  502 -0.0000000000e+00 -0.0000000000e+00 -2.2332990575e+01 2.2332990575e+01 0.0000000000e+00 0.0000e+00 -1.0000e+00
       25  2    1    2    0    0 +0.0000000000e+00 +0.0000000000e+00 +1.5257641025e+02 1.9724239140e+02 1.2500000000e+02 0.0000e+00 0.0000e+00
      -15  1    3    3    0    0 +2.3941776355e+01 +4.0004985064e+00 +7.0791973063e+01 7.4859026326e+01 1.7770000000e+00 0.0000e+00 -1.0000e+00
       15  1    3    3    0    0 +1.4885430643e+01 -3.5459794999e+00 -1.2870284807e+01 2.0073663742e+01 1.7770000000e+00 0.0000e+00 -1.0000e+00
       22  1    3    3    0    0 -3.8827206998e+01 -4.5451900649e-01 +9.4654721991e+01 1.0230970133e+02 0.0000000000e+00 0.0000e+00 -1.0000e+00
<mgrwt>
<rscale>  2 0.12500000E+03</rscale>
<asrwt>0</asrwt>
<pdfrwt beam="1">  1       21 0.25721970E-01 0.12500000E+03</pdfrwt>
<pdfrwt beam="2">  1       21 0.32842634E-02 0.12500000E+03</pdfrwt>
<totfact> 0.77223282E+06</totfact>
</mgrwt>
</event>
<event>
 6      0 +9.8758382e+01 1.25000000e+02 7.54677100e-03 1.12640300e-01
       21 -1    0    0  502  501 +0.0000000000e+00 +0.0000000000e+00 +6.3565519274e+02 6.3565519274e+02 0.0000000000e+00 0.0000e+00 1.0000e+00
       21 -1    0    0  501  502 -0.0000000000e+00 -0.0000000000e+00 -6.1452341530e+00 6.1452341530e+00 0.0000000000e+00 0.0000e+00 1.0000e+00
       25  2    1    2    0    0 +0.0000000000e+00 +0.0000000000e+00 +6.2950995859e+02 6.4180042690e+02 1.2500000000e+02 0.0000e+00 0.0000e+00
      -15  1    3    3    0    0 -2.9831937734e+01 +2.8363739281e+01 +2.6828449845e+02 2.7142987318e+02 1.7770000000e+00 0.0000e+00 -1.0000e+00
       15  1    3    3    0    0 -1.8950831044e+01 -2.2332755318e+01 +8.8128839288e+01 9.2885607069e+01 1.7770000000e+00 0.0000e+00 -1.0000e+00
       22  1    3    3    0    0 +4.8782768778e+01 -6.0309839632e+00 +2.7309662074e+02 2.7748494654e+02 0.0000000000e+00 0.0000e+00 -1.0000e+00
<mgrwt>
<rscale>  2 0.12500000E+03</rscale>
<asrwt>0</asrwt>
<pdfrwt beam="1">  1       21 0.93478659E-01 0.12500000E+03</pdfrwt>
<pdfrwt beam="2">  1       21 0.90371135E-03 0.12500000E+03</pdfrwt>
<totfact> 0.36009615E+06</totfact>
</mgrwt>
</event>
<event>
 6      0 +9.8758382e+01 1.25000000e+02 7.54677100e-03 1.12640300e-01
       21 -1    0    0  502  501 +0.0000000000e+00 +0.0000000000e+00 +2.3405723974e+01 2.3405723974e+01 0.0000000000e+00 0.0000e+00 -1.0000e+00
       21 -1    0    0  501  502 -0.0000000000e+00 -0.0000000000e+00 -1.6689293629e+02 1.6689293629e+02 0.0000000000e+00 0.0000e+00 -1.0000e+00
       25  2    1    2    0    0 +0.0000000000e+00 +0.0000000000e+00 -1.4348721231e+02 1.9029866026e+02 1.2500000000e+02 0.0000e+00 0.0000e+00
      -15  1    3    3    0    0 +2.8176983392e+01 -2.8004799724e+00 -6.0548670028e+01 6.6866166724e+01 1.7770000000e+00 0.0000e+00 -1.0000e+00
       15  1    3    3    0    0 -3.5687745533e+00 +1.1046196557e+01 -9.4352497435e+01 9.5080524354e+01 1.7770000000e+00 0.0000e+00 -1.0000e+00
       22  1    3    3    0    0 -2.4608208838e+01 -8.2457165850e+00 +1.1413955154e+01 2.8351969181e+01 0.0000000000e+00 0.0000e+00 -1.0000e+00
<mgrwt>
<rscale>  2 0.12500000E+03</rscale>
<asrwt>0</asrwt>
<pdfrwt beam="1">  1       21 0.34420184E-02 0.12500000E+03</pdfrwt>
<pdfrwt beam="2">  1       21 0.24543078E-01 0.12500000E+03</pdfrwt>
<totfact> 0.78253052E+06</totfact>
</mgrwt>
</event>
<event>
 6      0 +9.8758382e+01 1.25000000e+02 7.54677100e-03 1.12640300e-01
       21 -1    0    0  502  501 +0.0000000000e+00 +0.0000000000e+00 +2.6638527838e+02 2.6638527838e+02 0.0000000000e+00 0.0000e+00 -1.0000e+00
       21 -1    0    0  501  502 -0.0000000000e+00 -0.0000000000e+00 -1.4663910948e+01 1.4663910948e+01 0.0000000000e+00 0.0000e+00 -1.0000e+00
       25  2    1    2    0    0 +0.0000000000e+00 +0.0000000000e+00 +2.5172136743e+02 2.8104918933e+02 1.2500000000e+02 0.0000e+00 0.0000e+00
      -15  1    3    3    0    0 +1.6080259282e+01 +2.7438004956e+01 +2.6550079223e+01 4.1466652750e+01 1.7770000000e+00 0.0000e+00 -1.0000e+00
       15  1    3    3    0    0 +4.0505831735e+00 -4.9387042807e+01 +1.1065306811e+02 1.2125488210e+02 1.7770000000e+00 0.0000e+00 -1.0000e+00
       22  1    3    3    0    0 -2.0130842456e+01 +2.1949037850e+01 +1.1451822008e+02 1.1832765446e+02 0.0000000000e+00 0.0000e+00 -1.0000e+00
<mgrwt>
<rscale>  2 0.12500000E+03</rscale>
<asrwt>0</asrwt>
<pdfrwt beam="1">  1       21 0.39174303E-01 0.12500000E+03</pdfrwt>
<pdfrwt beam="2">  1       21 0.21564577E-02 0.12500000E+03</pdfrwt>
<totfact> 0.66166344E+06</totfact>
</mgrwt>
</event>
<event>
 6      0 +9.8758382e+01 1.25000000e+02 7.54677100e-03 1.12640300e-01
       21 -1    0    0  502  501 +0.0000000000e+00 +0.0000000000e+00 +4.4758404189e+02 4.4758404189e+02 0.0000000000e+00 0.0000e+00 -1.0000e+00
       21 -1    0    0  501  502 -0.0000000000e+00 -0.0000000000e+00 -8.7274112444e+00 8.7274112444e+00 0.0000000000e+00 0.0000e+00 -1.0000e+00
       25  2    1    2    0    0 +0.0000000000e+00 +0.0000000000e+00 +4.3885663064e+02 4.5631145313e+02 1.2500000000e+02 0.0000e+00 0.0000e+00
      -15  1    3    3    0    0 +2.6930252238e+01 -4.6609696389e+01 +1.7299163794e+02 1.8118213711e+02 1.7770000000e+00 0.0000e+00 -1.0000e+00
       15  1    3    3    0    0 +6.3378207665e+00 -5.7255014073e+00 +3.6588302365e+01 3.7613972635e+01 1.7770000000e+00 0.0000e+00 -1.0000e+00
       22  1    3    3    0    0 -3.3268073004e+01 +5.2335197797e+01 +2.2927669033e+02 2.3751534337e+02 0.0000000000e+00 0.0000e+00 -1.0000e+00
<mgrwt>
<rscale>  2 0.12500000E+03</rscale>
<asrwt>0</asrwt>
<pdfrwt beam="1">  1       21 0.65821167E-01 0.12500000E+03</pdfrwt>
<pdfrwt beam="2">  1       21 0.12834431E-02 0.12500000E+03</pdfrwt>
<totfact> 0.48753910E+06</totfact>
</mgrwt>
</event>
<event>
 6      0 +9.8758382e+01 1.25000000e+02 7.54677100e-03 1.12640300e-01
       21 -1    0    0  502  501 +0.0000000000e+00 +0.0000000000e+00 +7.2554036243e+02 7.2554036243e+02 0.0000000000e+00 0.0000e+00 -1.0000e+00
       21 -1    0    0  501  502 -0.0000000000e+00 -0.0000000000e+00 -5.3839182522e+00 5.3839182522e+00 0.0000000000e+00 0.0000e+00 -1.0000e+00
       25  2    1    2    0    0 +0.0000000000e+00 +0.0000000000e+00 +7.2015644417e+02 7.3092428068e+02 1.2500000000e+02 0.0000e+00 0.0000e+00
      -15  1    3    3    0    0 +2.2760617321e-01 +1.0302633439e+01 +1.4553452570e+01 1.7920847387e+01 1.7770000000e+00 0.0000e+00 -1.0000e+00
       15  1    3    3    0    0 -4.6584834611e+01 +1.4809618756e+01 +3.8490585036e+02 3.8800147293e+02 1.7770000000e+00 0.0000e+00 -1.0000e+00
       22  1    3    3    0    0 +4.6357228438e+01 -2.5112252195e+01 +3.2069714106e+02 3.2500196018e+02 0.0000000000e+00 0.0000e+00 -1.0000e+00
<mgrwt>
<rscale>  2 0.12500000E+03</rscale>
<asrwt>0</asrwt>
<pdfrwt beam="1">  1       21 0.10669704E+00 0.12500000E+03</pdfrwt>
<pdfrwt beam="2">  1       21 0.79175318E-03 0.12500000E+03</pdfrwt>
<totfact> 0.31390131E+06</totfact>
</mgrwt>
</event>
<event>
 6      0 +9.8758382e+01 1.25000000e+02 7.54677100e-03 1.12640300e-01
       21 -1    0    0  502  501 +0.0000000000e+00 +0.0000000000e+00 +6.7111645969e+00 6.7111645969e+00 0.0000000000e+00 0.0000e+00 -1.0000e+00
       21 -1    0    0  501  502 -0.0000000000e+00 -0.0000000000e+00 -5.8205248040e+02 5.8205248040e+02 0.0000000000e+00 0.0000e+00 -1.0000e+00
       25  2    1    2    0    0 +0.0000000000e+00 +0.0000000000e+00 -5.7534131580e+02 5.8876364499e+02 1.2500000000e+02 0.0000e+00 0.0000e+00
      -15  1    3    3    0    0 -5.2092294399e+01 -4.5268405303e+00 -2.6159143238e+02 2.6677206496e+02 1.7770000000e+00 0.0000e+00 -1.0000e+00
       15  1    3    3    0    0 +3.1245722501e+01 -2.0899577863e+01 -2.0321017114e+02 2.0666547586e+02 1.7770000000e+00 0.0000e+00 -1.0000e+00
       22  1    3    3    0    0 +2.0846571898e+01 +2.5426418394e+01 -1.1053971237e+02 1.1532610425e+02 0.0000000000e+00 0.0000e+00 -1.0000e+00
<mgrwt>
<rscale>  2 0.12500000E+03</rscale>
<asrwt>0</asrwt>
<pdfrwt beam="1">  1       21 0.98693583E-03 0.12500000E+03</pdfrwt>
<pdfrwt beam="2">  1       21 0.85595965E-01 0.12500000E+03</pdfrwt>
<totfact> 0.39245036E+06</totfact>
</mgrwt>
</event>
<event>
 6      0 +9.8758382e+01 1.25000000e+02 7.54677100e-03 1.12640300e-01
       21 -1    0    0  502  501 +0.0000000000e+00 +0.0000000000e+00 +7.0415869821e+01 7.0415869821e+01 0.0000000000e+00 0.0000e+00 1.0000e+00
       21 -1    0    0  501  502 -0.0000000000e+00 -0.0000000000e+00 -5.5474000533e+01 5.5474000533e+01 0.0000000000e+00 0.0000e+00 1.0000e+00
       25  2    1    2    0    0 +0.0000000000e+00 +0.0000000000e+00 +1.4941869287e+01 1.2588987035e+02 1.2500000000e+02 0.0000e+00 0.0000e+00
      -15  1    3    3    0    0 +1.3076372294e+00 -1.5039774698e+01 +2.9444904490e+01 3.3137061842e+01 1.7770000000e+00 0.0000e+00 -1.0000e+00
       15  1    3    3    0    0 -7.4217356817e+00 +2.3698200514e+01 +3.4539870687e+01 4.2577544131e+01 1.7770000000e+00 0.0000e+00 -1.0000e+00
       22  1    3    3    0    0 +6.1140984523e+00 -8.6584258159e+00 -4.9042905891e+01 5.0175264380e+01 0.0000000000e+00 0.0000e+00 -1.0000e+00
<mgrwt>
<rscale>  2 0.12500000E+03</rscale>
<asrwt>0</asrwt>
<pdfrwt beam="1">  1       21 0.10355275E-01 0.12500000E+03</pdfrwt>
<pdfrwt beam="2">  1       21 0.81579412E-02 0.12500000E+03</pdfrwt>
<totfact> 0.88831729E+06</totfact>
</mgrwt>
</event>
<event>
 6      0 +9.8758382e+01 1.25000000e+02 7.54677100e-03 1.12640300e-01
       21 -1    0    0  502  501 +0.0000000000e+00 +0.0000000000e+00 +8.0171194808e+00 8.0171194808e+00 0.0000000000e+00 0.0000e+00 1.0000e+00
       21 -1    0    0  501  502 -0.0000000000e+00 -0.0000000000e+00 -4.8723859104e+02 4.8723859104e+02 0.0000000000e+00 0.0000e+00 1.0000e+00
       25  2    1    2    0    0 +0.0000000000e+00 +0.0000000000e+00 -4.7922147156e+02 4.9525571052e+02 1.2500000000e+02 0.0000e+00 0.0000e+00
      -15  1    3    3    0    0 -7.6439486398e+00 +2.0115568546e+01 -5.3563029531e+01 5.7751380159e+01 1.7770000000e+00 0.0000e+00 -1.0000e+00
       15  1    3    3    0    0 -4.4779044519e+01 -9.3760673588e+00 -2.3807716137e+02 2.4243961302e+02 1.7770000000e+00 0.0000e+00 -1.0000e+00
       22  1    3    3    0    0 +5.2422993159e+01 -1.0739501188e+01 -1.8758128068e+02 1.9506471736e+02 0.0000000000e+00 0.0000e+00 -1.0000e+00
<mgrwt>
<rscale>  2 0.12500000E+03</rscale>
<asrwt>0</asrwt>
<pdfrwt beam="1">  1       21 0.11789881E-02 0.12500000E+03</pdfrwt>
<pdfrwt beam="2">  1       21 0.71652737E-01 0.12500000E+03</pdfrwt>
<totfact> 0.45680917E+06</totfact>
</mgrwt>
</event>
<event>
 6      0 +9.8758382e+01 1.25000000e+02 7.54677100e-03 1.12640300e-01
       21 -1    0    0  502  501 +0.0000000000e+00 +0.0000000000e+00 +2.9359291627e+02 2.9359291627e+02 0.0000000000e+00 0.0000e+00 1.0000e+00
       21 -1    0    0  501  502 -0.0000000000e+00 -0.0000000000e+00 -1.3304987224e+01 1.3304987224e+01 0.0000000000e+00 0.0000e+00 1.0000e+00
       25  2    1    2    0    0 +0.0000000000e+00 +0.0000000000e+00 +2.8028792904e+02 3.0689790349e+02 1.2500000000e+02 0.0000e+00 0.0000e+00
      -15  1    3    3    0    0 -1.8996084896e+01 -3.1784740884e+01 +4.8278558282e+01 6.0869515467e+01 1.7770000000e+00 0.0000e+00 -1.0000e+00
       15  1    3    3    0    0 +1.8134110308e+01 -2.0849548154e+01 +5.8744170524e+01 6.4942935832e+01 1.7770000000e+00 0.0000e+00 -1.0000e+00
       22  1    3    3    0    0 +8.6197458782e-01 +5.2634289038e+01 +1.7326520022e+02 1.8108545218e+02 0.0000000000e+00 0.0000e+00 -1.0000e+00
<mgrwt>
<rscale>  2 0.12500000E+03</rscale>
<asrwt>0</asrwt>
<pdfrwt beam="1">  1       21 0.43175425E-01 0.12500000E+03</pdfrwt>
<pdfrwt beam="2">  1       21 0.19566160E-02 0.12500000E+03</pdfrwt>
<totfact> 0.63164055E+06</totfact>
</mgrwt>
</event>
<event>
 6      0 +9.8758382e+01 1.25000000e+02 7.54677100e-03 1.12640300e-01
       21 -1    0    0  502  501 +0.0000000000e+00 +0.0000000000e+00 +2.2942869523e+02 2.2942869523e+02 0.0000000000e+00 0.0000e+00 1.0000e+00
       21 -1    0    0  501  502 -0.0000000000e+00 -0.0000000000e+00 -1.7025987077e+01 1.7025987077e+01 0.0000000000e+00 0.0000e+00 1.0000e+00
       25  2    1    2    0    0 +0.0000000000e+00 +0.0000000000e+00 +2.1240270815e+02 2.4645468230e+02 1.2500000000e+02 0.0000e+00 0.0000e+00
      -15  1    3    3    0    0 -1.0848147912e+01 +6.3993121062e+00 -9.5514575140e+00 1.5906652011e+01 1.7770000000e+00 0.0000e+00 -1.0000e+00
       15  1    3    3    0    0 -1.9436053052e+01 +1.2303525664e+01 +5.1721240559e+01 5.6633747500e+01 1.7770000000e+00 0.0000e+00 -1.0000e+00
       22  1    3    3    0    0 +3.0284200963e+01 -1.8702837770e+01 +1.7023292512e+02 1.7391428280e+02 0.0000000000e+00 0.0000e+00 -1.0000e+00
<mgrwt>
<rscale>  2 0.12500000E+03</rscale>
<asrwt>0</asrwt>
<pdfrwt beam="1">  1       21 0.33739512E-01 0.12500000E+03</pdfrwt>
<pdfrwt beam="2">  1       21 0.25038218E-02 0.12500000E+03</pdfrwt>
<totfact> 0.70461129E+06</totfact>
</mgrwt>
</event>
<event>
 6      0 +9.8758382e+01 1.25000000e+02 7.54677100e-03 1.12640300e-01
       21 -1    0    0  502  501 +0.0000000000e+00 +0.0000000000e+00 +3.1437057555e+02 3.1437057555e+02 0.0000000000e+00 0.0000e+00 -1.0000e+00
       21 -1    0    0  501  502 -0.0000000000e+00 -0.0000000000e+00 -1.2425622192e+01 1.2425622192e+01 0.0000000000e+00 0.0000e+00 -1.0000e+00
       25  2    1    2    0    0 +0.0000000000e+00 +0.0000000000e+00 +3.0194495335e+02 3.2679619774e+02 1.2500000000e+02 0.0000e+00 0.0000e+00
      -15  1    3    3    0    0 -5.0623594152e+01 -4.4017031524e+00 +1.6975976591e+02 1.7721077599e+02 1.7770000000e+00 0.0000e+00 -1.0000e+00
       15  1    3    3    0    0 +8.1871282059e+00 +2.1002399914e+01 +6.1089634286e+01 6.5140087631e+01 1.7770000000e+00 0.0000e+00 -1.0000e+00
       22  1    3    3    0    0 +4.2436465946e+01 -1.6600696762e+01 +7.1095553119e+01 8.4445334082e+01 0.0000000000e+00 0.0000e+00 -1.0000e+00
<mgrwt>
<rscale>  2 0.12500000E+03</rscale>
<asrwt>0</asrwt>
<pdfrwt beam="1">  1       21 0.46230962E-01 0.12500000E+03</pdfrwt>
<pdfrwt beam="2">  1       21 0.18272976E-02 0.12500000E+03</pdfrwt>
<totfact> 0.60967533E+06</totfact>
</mgrwt>
</event>
<event>
 6      0 +9.8758382e+01 1.25000000e+02 7.54677100e-03 1.12640300e-01
       21 -1    0    0  502  501 +0.0000000000e+00 +0.0000000000e+00 +4.9663358914e+00 4.9663358914e+00 0.0000000000e+00 0.0000e+00 1.0000e+00
       21 -1    0    0  501  502 -0.0000000000e+00 -0.0000000000e+00 -7.8654567178e+02 7.8654567178e+02 0.0000000000e+00 0.0000e+00 1.0000e+00
       25  2    1    2    0    0 +0.0000000000e+00 +0.0000000000e+00 -7.8157933589e+02 7.9151200768e+02 1.2500000000e+02 0.0000e+00 0.0000e+00
      -15  1    3    3    0    0 -7.8148748780e+00 +9.2548156715e+00 -3.4710583460e+01 3.6806333906e+01 1.7770000000e+00 0.0000e+00 -1.0000e+00
       15  1    3    3    0    0 -2.5839939231e+01 +3.7273811615e+01 -2.1455806743e+02 2.1930654691e+02 1.7770000000e+00 0.0000e+00 -1.0000e+00
       22  1    3    3    0    0 +3.3654814109e+01 -4.6528627286e+01 -5.3231068472e+02 5.3539912657e+02 0.0000000000e+00 0.0000e+00 -1.0000e+00
<mgrwt>
<rscale>  2 0.12500000E+03</rscale>
<asrwt>0</asrwt>
<pdfrwt beam="1">  1       21 0.73034340E-03 0.12500000E+03</pdfrwt>
<pdfrwt beam="2">  1       21 0.11566850E+00 0.12500000E+03</pdfrwt>
<totfact> 0.28644280E+06</totfact>
</mgrwt>
</event>
<event>
 6      0 +9.8758382e+01 1.25000000e+02 7.54677100e-03 1.12640300e-01
       21 -1    0    0  502  501 +0.0000000000e+00 +0.0000000000e+00 +3.5385838277e+02 3.5385838277e+02 0.0000000000e+00 0.0000e+00 1.0000e+00
       21 -1    0    0  501  502 -0.0000000000e+00 -0.0000000000e+00 -1.1039020665e+01 1.1039020665e+01 0.0000000000e+00 0.0000e+00 1.0000e+00
       25  2    1    2    0    0 +0.0000000000e+00 +0.0000000000e+00 +3.4281936211e+02 3.6489740344e+02 1.2500000000e+02 0.0000e+00 0.0000e+00
      -15  1    3    3    0    0 -3.6130019403e+01 +5.4629459500e+00 +1.2545087494e+02 1.3067632468e+02 1.7770000000e+00 0.0000e+00 -1.0000e+00
       15  1    3    3    0    0 -1.5409957324e+01 +2.3463224659e+01 +6.8598267954e+01 7.4140878005e+01 1.7770000000e+00 0.0000e+00 -1.0000e+00
       22  1    3    3    0    0 +5.1539976727e+01 -2.8926170609e+01 +1.4877021922e+02 1.6008020075e+02 0.0000000000e+00 0.0000e+00 -1.0000e+00
<mgrwt>
<rscale>  2 0.12500000E+03</rscale>
<asrwt>0</asrwt>
<pdfrwt beam="1">  1       21 0.52037990E-01 0.12500000E+03</pdfrwt>
<pdfrwt beam="2">  1       21 0.16233856E-02 0.12500000E+03</pdfrwt>
<totfact> 0.57025258E+06</totfact>
</mgrwt>
</event>
<event>
 6      0 +9.8758382e+01 1.25000000e+02 7.54677100e-03 1.12640300e-01
       21 -1    0    0  502  501 +0.0000000000e+00 +0.0000000000e+00 +1.8465296985e+01 1.8465296985e+01 0.0000000000e+00 0.0000e+00 -1.0000e+00
       21 -1    0    0  501  502 -0.0000000000e+00 -0.0000000000e+00 -2.1154547382e+02 2.1154547382e+02 0.0000000000e+00 0.0000e+00 -1.0000e+00
       25  2    1    2    0    0 +0.0000000000e+00 +0.0000000000e+00 -1.9308017684e+02 2.3001077081e+02 1.2500000000e+02 0.0000e+00 0.0000e+00
      -15  1    3    3    0    0 +4.4125496076e+01 +6.1616884638e+00 -5.9167788754e+01 7.4087858410e+01 1.7770000000e+00 0.0000e+00 -1.0000e+00
       15  1    3    3    0    0 -3.3165426195e+01 +1.9238745837e+01 -3.0943176301e+01 4.9302258819e+01 1.7770000000e+00 0.0000e+00 -1.0000e+00
       22  1    3    3    0    0 -1.0960069881e+01 -2.5400434300e+01 -1.0296921178e+02 1.0662065358e+02 0.0000000000e+00 0.0000e+00 -1.0000e+00
<mgrwt>
<rscale>  2 0.12500000E+03</rscale>
<asrwt>0</asrwt>
<pdfrwt beam="1">  1       21 0.27154848E-02 0.12500000E+03</pdfrwt>
<pdfrwt beam="2">  1       21 0.31109629E-01 0.12500000E+03</pdfrwt>
<totfact> 0.72636019E+06</totfact>
</mgrwt>
</event>
<event>
 6      0 +9.8758382e+01 1.25000000e+02 7.54677100e-03 1.12640300e-01
       21 -1    0    0  502  501 +0.0000000000e+00 +0.0000000000e+00 +3.8031204234e+01 3.8031204234e+01 0.0000000000e+00 0.0000e+00 -1.0000e+00
       21 -1    0    0  501  502 -0.0000000000e+00 -0.0000000000e+00 -1.0271170947e+02 1.0271170947e+02 0.0000000000e+00 0.0000e+00 -1.0000e+00
       25  2    1    2    0    0 +0.0000000000e+00 +0.0000000000e+00 -6.4680505233e+01 1.4074291370e+02 1.2500000000e+02 0.0000e+00 0.0000e+00
      -15  1    3    3    0    0 +2.2649455042e+01 -2.7894075985e+01 -3.3949147175e+01 4.9464933151e+01 1.7770000000e+00 0.0000e+00 -1.0000e+00
       15  1    3    3    0    0 -2.9209350210e+01 +4.7086257158e+01 -4.0606541209e+01 6.8719361687e+01 1.7770000000e+00 0.0000e+00 -1.0000e+00
       22  1    3    3    0    0 +6.5598951679e+00 -1.9192181172e+01 +9.8751831502e+00 2.2558618863e+01 0.0000000000e+00 0.0000e+00 -1.0000e+00
<mgrwt>
<rscale>  2 0.12500000E+03</rscale>
<asrwt>0</asrwt>
<pdfrwt beam="1">  1       21 0.55928242E-02 0.12500000E+03</pdfrwt>
<pdfrwt beam="2">  1       21 0.15104663E-01 0.12500000E+03</pdfrwt>
<totfact> 0.86211769E+06</totfact>
</mgrwt>
</event>
<event>
 6      0 +9.8758382e+01 1.25000000e+02 7.54677100e-03 1.12640300e-01
       21 -1    0    0  502  501 +0.0000000000e+00 +0.0000000000e+00 +6.1754157949e+02 6.1754157949e+02 0.0000000000e+00 0.0000e+00 -1.0000e+00
       21 -1    0    0  501  502 -0.0000000000e+00 -0.0000000000e+00 -6.3254850033e+00 6.3254850033e+00 0.0000000000e+00 0.0000e+00 -1.0000e+00
       25  2    1    2    0    0 +0.0000000000e+00 +0.0000000000e+00 +6.1121609449e+02 6.2386706449e+02 1.2500000000e+02 0.0000e+00 0.0000e+00
      -15  1    3    3    0    0 +1.2820381725e+01 -4.5358207909e+00 +3.1040338389e+02 3.1070621867e+02 1.7770000000e+00 0.0000e+00 -1.0000e+00
       15  1    3    3    0    0 +2.8456816021e+01 +2.1206578891e+01 +7.4870896340e+01 8.2875317279e+01 1.7770000000e+00 0.0000e+00 -1.0000e+00
       22  1    3    3    0    0 -4.1277197747e+01 -1.6670758100e+01 +2.2594181442e+02 2.3028552871e+02 0.0000000000e+00 0.0000e+00 -1.0000e+00
<mgrwt>
<rscale>  2 0.12500000E+03</rscale>
<asrwt>0</asrwt>
<pdfrwt beam="1">  1       21 0.90814897E-01 0.12500000E+03</pdfrwt>
<pdfrwt beam="2">  1       21 0.93021881E-03 0.12500000E+03</pdfrwt>
<totfact> 0.37043944E+06</totfact>
</mgrwt>
</event>
<event>
 6      0 +9.8758382e+01 1.25000000e+02 7.54677100e-03 1.12640300e-01
       21 -1    0    0  502  501 +0.0000000000e+00 +0.0000000000e+00 +2.1496131317e+02 2.1496131317e+02 0.0000000000e+00 0.0000e+00 1.0000e+00
       21 -1    0    0  501  502 -0.0000000000e+00 -0.0000000000e+00 -1.8171874476e+01 1.8171874476e+01 0.0000000000e+00 0.0000e+00 1.0000e+00
       25  2    1    2    0    0 +0.0000000000e+00 +0.0000000000e+00 +1.9678943869e+02 2.3313318764e+02 1.2500000000e+02 0.0000e+00 0.0000e+00
      -15  1    3    3    0    0 -2.7700659714e+01 -4.4664855249e+01 +7.8852885364e+01 9.4779803241e+01 1.7770000000e+00 0.0000e+00 -1.0000e+00
       15  1    3    3    0    0 -1.1132865588e+01 -8.2988024866e-01 +2.9465063761e+01 3.1559105008e+01 1.7770000000e+00 0.0000e+00 -1.0000e+00
       22  1    3    3    0    0 +3.8833525302e+01 +4.5494735498e+01 +8.8471489569e+01 1.0679427940e+02 0.0000000000e+00 0.0000e+00 -1.0000e+00
<mgrwt>
<rscale>  2 0.12500000E+03</rscale>
<asrwt>0</asrwt>
<pdfrwt beam="1">  1       21 0.31611956E-01 0.12500000E+03</pdfrwt>
<pdfrwt beam="2">  1       21 0.26723346E-02 0.12500000E+03</pdfrwt>
<totfact> 0.72218109E+06</totfact>
</mgrwt>
</event>
<event>
 6      0 +9.8758382e+01 1.25000000e+02 7.54677100e-03 1.12640300e-01
       21 -1    0    0  502  501 +0.0000000000e+00 +0.0000000000e+00 +1.3247392634e+02 1.3247392634e+02 0.0000000000e+00 0.0000e+00 1.0000e+00
       21 -1    0    0  501  502 -0.0000000000e+00 -0.0000000000e+00 -2.9486934585e+01 2.9486934585e+01 0.0000000000e+00 0.0000e+00 1.0000e+00
       25  2    1    2    0    0 +0.0000000000e+00 +0.0000000000e+00 +1.0298699175e+02 1.6196086092e+02 1.2500000000e+02 0.0000e+00 0.0000e+00
      -15  1    3    3    0    0 -1.6181187205e+01 +3.0937050302e+01 +9.7874453852e+00 3.6302668180e+01 1.7770000000e+00 0.0000e+00 -1.0000e+00
       15  1    3    3    0    0 -2.3271433209e+01 +8.6930266008e+00 +4.6719562055e+01 5.2943399236e+01 1.7770000000e+00 0.0000e+00 -1.0000e+00
       22  1    3    3    0    0 +3.9452620414e+01 -3.9630076903e+01 +4.6479984310e+01 7.2714793504e+01 0.0000000000e+00 0.0000e+00 -1.0000e+00
<mgrwt>
<rscale>  2 0.12500000E+03</rscale>
<asrwt>0</asrwt>
<pdfrwt beam="1">  1       21 0.19481460E-01 0.12500000E+03</pdfrwt>
<pdfrwt beam="2">  1       21 0.43363139E-02 0.12500000E+03</pdfrwt>
<totfact> 0.82659654E+06</totfact>
</mgrwt>
</event>
<event>
 6      0 +9.8758382e+01 1.25000000e+02 7.54677100e-03 1.12640300e-01
       21 -1    0    0  502  501 +0.0000000000e+00 +0.0000000000e+00 +5.6251935853e+01 5.6251935853e+01 0.0000000000e+00 0.0000e+00 -1.0000e+00
       21 -1    0    0  501  502 -0.0000000000e+00 -0.0000000000e+00 -6.9442054585e+01 6.9442054585e+01 0.0000000000e+00 0.0000e+00 -1.0000e+00
       25  2    1    2    0    0 +0.0000000000e+00 +0.0000000000e+00 -1.3190118733e+01 1.2569399044e+02 1.2500000000e+02 0.0000e+00 0.0000e+00
      -15  1    3    3    0    0 +2.5752361791e+01 +1.7044453279e+01 -2.7117313038e+01 4.1136406271e+01 1.7770000000e+00 0.0000e+00 -1.0000e+00
       15  1    3    3    0    0 +2.7697669798e+01 -9.9479892741e+00 +4.8584535466e+00 2.9881193127e+01 1.7770000000e+00 0.0000e+00 -1.0000e+00
       22  1    3    3    0    0 -5.3450031589e+01 -7.0964640050e+00 +9.0687407594e+00 5.4676391041e+01 0.0000000000e+00 0.0000e+00 -1.0000e+00
<mgrwt>
<rscale>  2 0.12500000E+03</rscale>
<asrwt>0</asrwt>
<pdfrwt beam="1">  1       21 0.82723435E-02 0.12500000E+03</pdfrwt>
<pdfrwt beam="2">  1       21 0.10212067E-01 0.12500000E+03</pdfrwt>
<totfact> 0.88867515E+06</totfact>
</mgrwt>
</event>
<event>
 6      0 +9.8758382e+01 1.25000000e+02 7.54677100e-03 1.12640300e-01
       21 -1    0    0  502  501 +0.0000000000e+00 +0.0000000000e+00 +7.5919515643e+01 7.5919515643e+01 0.0000000000e+00 0.0000e+00 1.0000e+00
       21 -1    0    0  501  502 -0.0000000000e+00 -0.0000000000e+00 -5.1452514770e+01 5.1452514770e+01 0.0000000000e+00 0.0000e+00 1.0000e+00
       25  2    1    2    0    0 +0.0000000000e+00 +0.0000000000e+00 +2.4467000873e+01 1.2737203041e+02 1.2500000000e+02 0.0000e+00 0.0000e+00
      -15  1    3    3    0    0 -1.8882438891e+01 -3.0535056186e+01 +1.9870911033e+01 4.1072460226e+01 1.7770000000e+00 0.0000e+00 -1.0000e+00
       15  1    3    3    0    0 +2.6667801944e+01 +2.5557248093e+01 +3.7174987468e+01 5.2435503362e+01 1.7770000000e+00 0.0000e+00 -1.0000e+00
       22  1    3    3    0    0 -7.7853630530e+00 +4.9778080937e+00 -3.2578897628e+01 3.3864066826e+01 0.0000000000e+00 0.0000e+00 -1.0000e+00
<mgrwt>
<rscale>  2 0.12500000E+03</rscale>
<asrwt>0</asrwt>
<pdfrwt beam="1">  1       21 0.11164635E-01 0.12500000E+03</pdfrwt>
<pdfrwt beam="2">  1       21 0.75665463E-02 0.12500000E+03</pdfrwt>
<totfact> 0.88567931E+06</totfact>
</mgrwt>
</event>
<event>
 6      0 +9.8758382e+01 1.25000000e+02 7.54677100e-03 1.12640300e-01
       21 -1    0    0  502  501 +0.0000000000e+00 +0.0000000000e+00 +3.4120633182e+02 3.4120633182e+02 0.0000000000e+00 0.0000e+00 1.0000e+00
       21 -1    0    0  501  502 -0.0000000000e+00 -0.0000000000e+00 -1.1448351439e+01 1.1448351439e+01 0.0000000000e+00 0.0000e+00 1.0000e+00
       25  2    1    2    0    0 +0.0000000000e+00 +0.0000000000e+00 +3.2975798038e+02 3.5265468326e+02 1.2500000000e+02 0.0000e+00 0.0000e+00
      -15  1    3    3    0    0 -1.0581846010e+01 +3.8986773795e+01 +1.1413660328e+02 1.2108784387e+02 1.7770000000e+00 0.0000e+00 -1.0000e+00
       15  1    3    3    0    0 -1.3367055767e+01 +9.3583281433e+00 +1.2521128507e+02 1.2628254085e+02 1.7770000000e+00 0.0000e+00 -1.0000e+00
       22  1    3    3    0    0 +2.3948901777e+01 -4.8345101938e+01 +9.0410092019e+01 1.0528429853e+02 0.0000000000e+00 0.0000e+00 -1.0000e+00
<mgrwt>
<rscale>  2 0.12500000E+03</rscale>
<asrwt>0</asrwt>
<pdfrwt beam="1">  1       21 0.50177395E-01 0.12500000E+03</pdfrwt>
<pdfrwt beam="2">  1       21 0.16835813E-02 0.12500000E+03</pdfrwt>
<totfact> 0.58257735E+06</totfact>
</mgrwt>
</event>
<event>
 6      0 +9.8758382e+01 1.25000000e+02 7.54677100e-03 1.12640300e-01
       21 -1    0    0  502  501 +0.0000000000e+00 +0.0000000000e+00 +1.1646174426e+02 1.1646174426e+02 0.0000000000e+00 0.0000e+00 1.0000e+00
       21 -1    0    0  501  502 -0.0000000000e+00 -0.0000000000e+00 -3.3541056978e+01 3.3541056978e+01 0.0000000000e+00 0.0000e+00 1.0000e+00
       25  2    1    2    0    0 +0.0000000000e+00 +0.0000000000e+00 +8.2920687282e+01 1.5000280124e+02 1.2500000000e+02 0.0000e+00 0.0000e+00
      -15  1    3    3    0    0 +3.2046220732e+01 +4.0479300182e+01 +1.0606678046e+01 5.2737020722e+01 1.7770000000e+00 0.0000e+00 -1.0000e+00
       15  1    3    3    0    0 -1.2546054994e+00 -3.0255276010e+01 +4.7754790903e+01 5.6574142014e+01 1.7770000000e+00 0.0000e+00 -1.0000e+00
       22  1    3    3    0    0 -3.0791615233e+01 -1.0224024172e+01 +2.4559218332e+01 4.0691638502e+01 0.0000000000e+00 0.0000e+00 -1.0000e+00
<mgrwt>
<rscale>  2 0.12500000E+03</rscale>
<asrwt>0</asrwt>
<pdfrwt beam="1">  1       21 0.17126727E-01 0.12500000E+03</pdfrwt>
<pdfrwt beam="2">  1       21 0.49325084E-02 0.12500000E+03</pdfrwt>
<totfact> 0.84624963E+06</totfact>
</mgrwt>
</event>
<event>
 6      0 +9.8758382e+01 1.25000000e+02 7.54677100e-03 1.12640300e-01
       21 -1    0    0  502  501 +0.0000000000e+00 +0.0000000000e+00 +1.5629437634e+01 1.5629437634e+01 0.0000000000e+00 0.0000e+00 -1.0000e+00
       21 -1    0    0  501  502 -0.0000000000e+00 -0.0000000000e+00 -2.4992901801e+02 2.4992901801e+02 0.0000000000e+00 0.0000e+00 -1.0000e+00
       25  2    1    2    0    0 +0.0000000000e+00 +0.0000000000e+00 -2.3429958037e+02 2.6555845564e+02 1.2500000000e+02 0.0000e+00 0.0000e+00
      -15  1    3    3    0    0 +1.3403306014e+01 +1.4114397715e+01 -1.4622839051e+02 1.4752886075e+02 1.7770000000e+00 0.0000e+00 -1.0000e+00
       15  1    3    3    0    0 +1.6890921485e+01 +1.7977118739e+01 -6.2051622714e+01 6.6798515232e+01 1.7770000000e+00 0.0000e+00 -1.0000e+00
       22  1    3    3    0    0 -3.0294227499e+01 -3.2091516454e+01 -2.6019567145e+01 5.1231079653e+01 0.0000000000e+00 0.0000e+00 -1.0000e+00
<mgrwt>
<rscale>  2 0.12500000E+03</rscale>
<asrwt>0</asrwt>
<pdfrwt beam="1">  1       21 0.22984469E-02 0.12500000E+03</pdfrwt>
<pdfrwt beam="2">  1       21 0.36754264E-01 0.12500000E+03</pdfrwt>
<totfact> 0.68043665E+06</totfact>
</mgrwt>
</event>
<event>
 6      0 +9.8758382e+01 1.25000000e+02 7.54677100e-03 1.12640300e-01
       21 -1    0    0  502  501 +0.0000000000e+00 +0.0000000000e+00 +2.2094412950e+01 2.2094412950e+01 0.0000000000e+00 0.0000e+00 1.0000e+00
       21 -1    0    0  501  502 -0.0000000000e+00 -0.0000000000e+00 -1.7679808958e+02 1.7679808958e+02 0.0000000000e+00 0.0000e+00 1.0000e+00
       25  2    1    2    0    0 +0.0000000000e+00 +0.0000000000e+00 -1.5470367663e+02 1.9889250253e+02 1.2500000000e+02 0.0000e+00 0.0000e+00
      -15  1    3    3    0    0 +3.9053108710e+00 -1.4030715052e+01 +1.2123349764e+01 1.9032754830e+01 1.7770000000e+00 0.0000e+00 -1.0000e+00
       15  1    3    3    0    0 -5.4026225185e+00 -9.7652305028e+00 +3.7120618479e-02 1.1300759434e+01 1.7770000000e+00 0.0000e+00 -1.0000e+00
       22  1    3    3    0    0 +1.4973116474e+00 +2.3795945555e+01 -1.6686414702e+02 1.6855898827e+02 0.0000000000e+00 0.0000e+00 -1.0000e+00
<mgrwt>
<rscale>  2 0.12500000E+03</rscale>
<asrwt>0</asrwt>
<pdfrwt beam="1">  1       21 0.32491784E-02 0.12500000E+03</pdfrwt>
<pdfrwt beam="2">  1       21 0.25999719E-01 0.12500000E+03</pdfrwt>
<totfact> 0.76980801E+06</totfact>
</mgrwt>
</event>
<event>
 6      0 +9.8758382e+01 1.25000000e+02 7.54677100e-03 1.12640300e-01
       21 -1    0    0  502  501 +0.0000000000e+00 +0.0000000000e+00 +3.7757870706e+01 3.7757870706e+01 0.0000000000e+00 0.0000e+00 1.0000e+00
       21 -1    0    0  501  502 -0.0000000000e+00 -0.0000000000e+00 -1.0345525124e+02 1.0345525124e+02 0.0000000000e+00 0.0000e+00 1.0000e+00
       25  2    1    2    0    0 +0.0000000000e+00 +0.0000000000e+00 -6.5697380530e+01 1.4121312194e+02 1.2500000000e+02 0.0000e+00 0.0000e+00
      -15  1    3    3    0    0 +1.7401697491e+01 -2.1178592628e+01 +1.4284760113e+00 2.7505456441e+01 1.7770000000e+00 0.0000e+00 -1.0000e+00
       15  1    3    3    0    0 -2.1053907517e+01 +5.3957825773e+01 -5.0039475316e+01 7.6562528713e+01 1.7770000000e+00 0.0000e+00 -1.0000e+00
       22  1    3    3    0    0 +3.6522100266e+00 -3.2779233146e+01 -1.7086381226e+01 3.7145136789e+01 0.0000000000e+00 0.0000e+00 -1.0000e+00
<mgrwt>
<rscale>  2 0.12500000E+03</rscale>
<asrwt>0</asrwt>
<pdfrwt beam="1">  1       21 0.55526281E-02 0.12500000E+03</pdfrwt>
<pdfrwt beam="2">  1       21 0.15214007E-01 0.12500000E+03</pdfrwt>
<totfact> 0.86130316E+06</totfact>
</mgrwt>
</event>
<event>
 6      0 +9.8758382e+01 1.25000000e+02 7.54677100e-03 1.12640300e-01
       21 -1    0    0  502  501 +0.0000000000e+00 +0.0000000000e+00 +4.9787226466e+01 4.9787226466e+01 0.0000000000e+00 0.0000e+00 1.0000e+00
       21 -1    0    0  501  502 -0.0000000000e+00 -0.0000000000e+00 -7.8458879461e+01 7.8458879461e+01 0.0000000000e+00 0.0000e+00 1.0000e+00
       25  2    1    2    0    0 +0.0000000000e+00 +0.0000000000e+00 -2.8671652994e+01 1.2824610593e+02 1.2500000000e+02 0.0000e+00 0.0000e+00
      -15  1    3    3    0    0 +1.9183874312e+01 +3.4394736808e+01 -3.1201299949e+01 5.0276215064e+01 1.7770000000e+00 0.0000e+00 -1.0000e+00
       15  1    3    3    0    0 -6.2574470351e+00 -5.1441021711e+01 -1.0525024592e+01 5.2908111190e+01 1.7770000000e+00 0.0000e+00 -1.0000e+00
       22  1    3    3    0    0 -1.2926427277e+01 +1.7046284903e+01 +1.3054671546e+01 2.5061779673e+01 0.0000000000e+00 0.0000e+00 -1.0000e+00
<mgrwt>
<rscale>  2 0.12500000E+03</rscale>
<asrwt>0</asrwt>
<pdfrwt beam="1">  1       21 0.73216511E-02 0.12500000E+03</pdfrwt>
<pdfrwt beam="2">  1       21 0.11538070E-01 0.12500000E+03</pdfrwt>
<totfact> 0.88414138E+06</totfact>
</mgrwt>
</event>
<event>
 6      0 +9.8758382e+01 1.25000000e+02 7.54677100e-03 1.12640300e-01
       21 -1    0    0  502  501 +0.0000000000e+00 +0.0000000000e+00 +8.2232497934e+01 8.2232497934e+01 0.0000000000e+00 0.0000e+00 -1.0000e+00
       21 -1    0    0  501  502 -0.0000000000e+00 -0.0000000000e+00 -4.7502509326e+01 4.7502509326e+01 0.0000000000e+00 0.0000e+00 -1.0000e+00
       25  2    1    2    0    0 +0.0000000000e+00 +0.0000000000e+00 +3.4729988609e+01 1.2973500726e+02 1.2500000000e+02 0.0000e+00 0.0000e+00
      -15  1    3    3    0    0 -1.2430724100e+01 -1.5054137906e+01 +3.5649215086e+00 1.9925269487e+01 1.7770000000e+00 0.0000e+00 -1.0000e+00
       15  1    3    3    0    0 +1.4160040524e+01 -3.8606268540e+01 -9.7613490855e+00 4.2301210186e+01 1.7770000000e+00 0.0000e+00 -1.0000e+00
       22  1    3    3    0    0 -1.7293164233e+00 +5.3660406446e+01 +4.0926416186e+01 6.7508527588e+01 0.0000000000e+00 0.0000e+00 -1.0000e+00
<mgrwt>
<rscale>  2 0.12500000E+03</rscale>
<asrwt>0</asrwt>
<pdfrwt beam="1">  1       21 0.12093014E-01 0.12500000E+03</pdfrwt>
<pdfrwt beam="2">  1       21 0.69856631E-02 0.12500000E+03</pdfrwt>
<totfact> 0.88146258E+06</totfact>
</mgrwt>
</event>
<event>
 6      0 +9.8758382e+01 1.25000000e+02 7.54677100e-03 1.12640300e-01
       21 -1    0    0  502  501 +0.0000000000e+00 +0.0000000000e+00 +1.1445425576e+01 1.1445425576e+01 0.0000000000e+00 0.0000e+00 -1.0000e+00
       21 -1    0    0  501  502 -0.0000000000e+00 -0.0000000000e+00 -3.4129355644e+02 3.4129355644e+02 0.0000000000e+00 0.0000e+00 -1.0000e+00
       25  2    1    2    0    0 +0.0000000000e+00 +0.0000000000e+00 -3.2984813087e+02 3.5273898202e+02 1.2500000000e+02 0.0000e+00 0.0000e+00
      -15  1    3    3    0    0 -1.8933373635e+00 -1.8867546688e+00 -1.4310921159e+02 1.4314520159e+02 1.7770000000e+00 0.0000e+00 -1.0000e+00
       15  1    3    3    0    0 +4.4149109065e+01 +6.0600186303e+00 -1.3761861256e+02 1.4466481227e+02 1.7770000000e+00 0.0000e+00 -1.0000e+00
       22  1    3    3    0    0 -4.2255771701e+01 -4.1732639614e+00 -4.9120306749e+01 6.4928968183e+01 0.0000000000e+00 0.0000e+00 -1.0000e+00
<mgrwt>
<rscale>  2 0.12500000E+03</rscale>
<asrwt>0</asrwt>
<pdfrwt beam="1">  1       21 0.16831507E-02 0.12500000E+03</pdfrwt>
<pdfrwt beam="2">  1       21 0.50190232E-01 0.12500000E+03</pdfrwt>
<totfact> 0.58249140E+06</totfact>
</mgrwt>
</event>
<event>
 6      0 +9.8758382e+01 1.25000000e+02 7.54677100e-03 1.12640300e-01
       21 -1    0    0  502  501 +0.0000000000e+00 +0.0000000000e+00 +1.0251778720e+02 1.0251778720e+02 0.0000000000e+00 0.0000e+00 1.0000e+00
       21 -1    0    0  501  502 -0.0000000000e+00 -0.0000000000e+00 -3.8103143920e+01 3.8103143920e+01 0.0000000000e+00 0.0000e+00 1.0000e+00
       25  2    1    2    0    0 +0.0000000000e+00 +0.0000000000e+00 +6.4414643280e+01 1.4062093112e+02 1.2500000000e+02 0.0000e+00 0.0000e+00
      -15  1    3    3    0    0 -1.4975451211e+01 +1.7208436865e+01 +1.3973110734e+01 2.6810445556e+01 1.7770000000e+00 0.0000e+00 -1.0000e+00
       15  1    3    3    0    0 -3.4141478479e+01 -1.6445251707e+01 +5.2349351743e+01 6.4650593294e+01 1.7770000000e+00 0.0000e+00 -1.0000e+00
       22  1    3    3    0    0 +4.9116929690e+01 -7.6318515831e-01 -1.9078191975e+00 4.9159892269e+01 0.0000000000e+00 0.0000e+00 -1.0000e+00
<mgrwt>
<rscale>  2 0.12500000E+03</rscale>
<asrwt>0</asrwt>
<pdfrwt beam="1">  1       21 0.15076145E-01 0.12500000E+03</pdfrwt>
<pdfrwt beam="2">  1       21 0.56034035E-02 0.12500000E+03</pdfrwt>
<totfact> 0.86232887E+06</totfact>
</mgrwt>
</event>
<event>
 6      0 +9.8758382e+01 1.25000000e+02 7.54677100e-03 1.12640300e-01
       21 -1    0    0  502  501 +0.0000000000e+00 +0.0000000000e+00 +3.7826987863e+00 3.7826987863e+00 0.0000000000e+00 0.0000e+00 1.0000e+00
       21 -1    0    0  501  502 -0.0000000000e+00 -0.0000000000e+00 -1.0326621866e+03 1.0326621866e+03 0.0000000000e+00 0.0000e+00 1.0000e+00
       25  2    1    2    0    0 +0.0000000000e+00 +0.0000000000e+00 -1.0288794878e+03 1.0364448854e+03 1.2500000000e+02 0.0000e+00 0.0000e+00
      -15  1    3    3    0    0 -2.8022209895e-01 -1.9990126454e+01 -2.5147406800e+02 2.5227375663e+02 1.7770000000e+00 0.0000e+00 -1.0000e+00
       15  1    3    3    0    0 -2.9896280095e+01 -1.7964429742e+01 -1.1996625470e+02 1.2494626163e+02 1.7770000000e+00 0.0000e+00 -1.0000e+00
       22  1    3    3    0    0 +3.0176502194e+01 +3.7954556196e+01 -6.5743916325e+02 6.5922486528e+02 0.0000000000e+00 0.0000e+00 -1.0000e+00
<mgrwt>
<rscale>  2 0.12500000E+03</rscale>
<asrwt>0</asrwt>
<pdfrwt beam="1">  1       21 0.55627975E-03 0.12500000E+03</pdfrwt>
<pdfrwt beam="2">  1       21 0.15186195E+00 0.12500000E+03</pdfrwt>
<totfact> 0.20117749E+06</totfact>
</mgrwt>
</event>
<event>
 6      0 +9.8758382e+01 1.25000000e+02 7.54677100e-03 1.12640300e-01
       21 -1    0    0  502  501 +0.0000000000e+00 +0.0000000000e+00 +2.8315426243e+00 2.8315426243e+00 0.0000000000e+00 0.0000e+00 1.0000e+00
       21 -1    0    0  501  502 -0.0000000000e+00 -0.0000000000e+00 -1.3795483658e+03 1.3795483658e+03 0.0000000000e+00 0.0000e+00 1.0000e+00
       25  2    1    2    0    0 +0.0000000000e+00 +0.0000000000e+00 -1.3767168232e+03 1.3823799084e+03 1.2500000000e+02 0.0000e+00 0.0000e+00
      -15  1    3    3    0    0 +8.4448260643e+00 +5.7901894159e+00 -3.5415359118e+01 3.6908627328e+01 1.7770000000e+00 0.0000e+00 -1.0000e+00
       15  1    3    3    0    0 +4.5944603953e+01 +4.0211642949e+00 -8.0707413239e+02 8.0839278157e+02 1.7770000000e+00 0.0000e+00 -1.0000e+00
       22  1    3    3    0    0 -5.4389430017e+01 -9.8113537108e+00 -5.3422733760e+02 5.3707850543e+02 0.0000000000e+00 0.0000e+00 -1.0000e+00
<mgrwt>
<rscale>  2 0.12500000E+03</rscale>
<asrwt>0</asrwt>
<pdfrwt beam="1">  1       21 0.41640301E-03 0.12500000E+03</pdfrwt>
<pdfrwt beam="2">  1       21 0.20287491E+00 0.12500000E+03</pdfrwt>
<totfact> 0.12469546E+06</totfact>
</mgrwt>
</event>
<event>
 6      0 +9.8758382e+01 1.25000000e+02 7.54677100e-03 1.12640300e-01
       21 -1    0    0  502  501 +0.0000000000e+00 +0.0000000000e+00 +4.1661613729e+02 4.1661613729e+02 0.0000000000e+00 0.0000e+00 1.0000e+00
       21 -1    0    0  501  502 -0.0000000000e+00 -0.0000000000e+00 -9.3761370488e+00 9.3761370488e+00 0.0000000000e+00 0.0000e+00 1.0000e+00
       25  2    1    2    0    0 +0.0000000000e+00 +0.0000000000e+00 +4.0724000024e+02 4.2599227434e+02 1.2500000000e+02 0.0000e+00 0.0000e+00
      -15  1    3    3    0    0 -1.6509769337e+01 -1.0610825280e+00 +3.4107827226e+01 3.7949966887e+01 1.7770000000e+00 0.0000e+00 -1.0000e+00
       15  1    3    3    0    0 +3.8250023432e-01 +1.1769579014e+00 +3.7185806729e+02 3.7186437242e+02 1.7770000000e+00 0.0000e+00 -1.0000e+00
       22  1    3    3    0    0 +1.6127269102e+01 -1.1587537341e-01 +1.2741056977e+00 1.6177935007e+01 0.0000000000e+00 0.0000e+00 -1.0000e+00
<mgrwt>
<rscale>  2 0.12500000E+03</rscale>
<asrwt>0</asrwt>
<pdfrwt beam="1">  1       21 0.61267067E-01 0.12500000E+03</pdfrwt>
<pdfrwt beam="2">  1       21 0.13788440E-02 0.12500000E+03</pdfrwt>
<totfact> 0.51321189E+06</totfact>
</mgrwt>
</event>
<event>
 6      0 +9.8758382e+01 1.25000000e+02 7.54677100e-03 1.12640300e-01
       21 -1    0    0  502  501 +0.0000000000e+00 +0.0000000000e+00 +4.0699805247e+01 4.0699805247e+01 0.0000000000e+00 0.0000e+00 1.0000e+00
       21 -1    0    0  501  502 -0.0000000000e+00 -0.0000000000e+00 -9.5977117735e+01 9.5977117735e+01 0.0000000000e+00 0.0000e+00 1.0000e+00
       25  2    1    2    0    0 +0.0000000000e+00 +0.0000000000e+00 -5.5277312487e+01 1.3667692298e+02 1.2500000000e+02 0.0000e+00 0.0000e+00
      -15  1    3    3    0    0 +4.6292296195e-01 +9.6044878026e+00 +3.4222387377e+00 1.0360015955e+01 1.7770000000e+00 0.0000e+00 -1.0000e+00
       15  1    3    3    0    0 +2.6379571422e+01 -1.9280773334e+01 -8.2759263597e+01 8.8993727019e+01 1.7770000000e+00 0.0000e+00 -1.0000e+00
       22  1    3    3    0    0 -2.6842494384e+01 +9.6762855312e+00 +2.4059712372e+01 3.7323180007e+01 0.0000000000e+00 0.0000e+00 -1.0000e+00
<mgrwt>
<rscale>  2 0.12500000E+03</rscale>
<asrwt>0</asrwt>
<pdfrwt beam="1">  1       21 0.59852656E-02 0.12500000E+03</pdfrwt>
<pdfrwt beam="2">  1       21 0.14114282E-01 0.12500000E+03</pdfrwt>
<totfact> 0.86913965E+06</totfact>
</mgrwt>
</event>
<event>
 6      0 +9.8758382e+01 1.25000000e+02 7.54677100e-03 1.12640300e-01
       21 -1    0    0  502  501 +0.0000000000e+00 +0.0000000000e+00 +4.7323832572e+00 4.7323832572e+00 0.0000000000e+00 0.0000e+00 1.0000e+00
       21 -1    0    0  501  502 -0.0000000000e+00 -0.0000000000e+00 -8.2542976503e+02 8.2542976503e+02 0.0000000000e+00 0.0000e+00 1.0000e+00
       25  2    1    2    0    0 +0.0000000000e+00 +0.0000000000e+00 -8.2069738177e+02 8.3016214828e+02 1.2500000000e+02 0.0000e+00 0.0000e+00
      -15  1    3    3    0    0 -1.2279824925e+01 +5.3710262944e+00 -4.4732575390e+02 4.4753003235e+02 1.7770000000e+00 0.0000e+00 -1.0000e+00
       15  1    3    3    0    0 +2.9889165361e+01 -3.2655922066e+01 -2.8618467028e+02 2.8959384435e+02 1.7770000000e+00 0.0000e+00 -1.0000e+00
       22  1    3    3    0    0 -1.7609340436e+01 +2.7284895772e+01 -8.7186957782e+01 9.3038271776e+01 0.0000000000e+00 0.0000e+00 -1.0000e+00
<mgrwt>
<rscale>  2 0.12500000E+03</rscale>
<asrwt>0</asrwt>
<pdfrwt beam="1">  1       21 0.69593907E-03 0.12500000E+03</pdfrwt>
<pdfrwt beam="2">  1       21 0.12138667E+00 0.12500000E+03</pdfrwt>
<totfact> 0.27051927E+06</totfact>
</mgrwt>
</event>
<event>
 6      0 +9.8758382e+01 1.25000000e+02 7.54677100e-03 1.12640300e-01
       21 -1    0    0  502  501 +0.0000000000e+00 +0.0000000000e+00 +8.9694478272e+01 8.9694478272e+01 0.0000000000e+00 0.0000e+00 -1.0000e+00
       21 -1    0    0  501  502 -0.0000000000e+00 -0.0000000000e+00 -4.3550618447e+01 4.3550618447e+01 0.0000000000e+00 0.0000e+00 -1.0000e+00
       25  2    1    2    0    0 +0.0000000000e+00 +0.0000000000e+00 +4.6143859826e+01 1.3324509672e+02 1.2500000000e+02 0.0000e+00 0.0000e+00
      -15  1    3    3    0    0 -8.6000917040e+00 -1.2176920982e+01 -1.0299512884e+01 1.8206500943e+01 1.7770000000e+00 0.0000e+00 -1.0000e+00
       15  1    3    3    0    0 +2.7186224115e+01 +3.0061396748e+01 -1.1661575855e+01 4.2212894197e+01 1.7770000000e+00 0.0000e+00 -1.0000e+00
       22  1    3    3    0    0 -1.8586132411e+01 -1.7884475766e+01 +6.8104948565e+01 7.2825701579e+01 0.0000000000e+00 0.0000e+00 -1.0000e+00
<mgrwt>
<rscale>  2 0.12500000E+03</rscale>
<asrwt>0</asrwt>
<pdfrwt beam="1">  1       21 0.13190364E-01 0.12500000E+03</pdfrwt>
<pdfrwt beam="2">  1       21 0.64045027E-02 0.12500000E+03</pdfrwt>
<totfact> 0.87514628E+06</totfact>
</mgrwt>
</event>
<event>
 6      0 +9.8758382e+01 1.25000000e+02 7.54677100e-03 1.12640300e-01
       21 -1    0    0  502  501 +0.0000000000e+00 +0.0000000000e+00 +9.7461484475e+00 9.7461484475e+00 0.0000000000e+00 0.0000e+00 -1.0000e+00
       21 -1    0    0  501  502 -0.0000000000e+00 -0.0000000000e+00 -4.0079935382e+02 4.0079935382e+02 0.0000000000e+00 0.0000e+00 -1.0000e+00
       25  2    1    2    0    0 +0.0000000000e+00 +0.0000000000e+00 -3.9105320537e+02 4.1054550227e+02 1.2500000000e+02 0.0000e+00 0.0000e+00
      -15  1    3    3    0    0 -1.4600736750e+01 +1.9872218590e+01 -2.1843280209e+01 3.2990501733e+01 1.7770000000e+00 0.0000e+00 -1.0000e+00
       15  1    3    3    0    0 +4.3894345144e+01 -2.2054616258e+01 -2.4925435348e+02 2.5405513199e+02 1.7770000000e+00 0.0000e+00 -1.0000e+00
       22  1    3    3    0    0 -2.9293608394e+01 +2.1823976682e+00 -1.1995557163e+02 1.2349986849e+02 0.0000000000e+00 0.0000e+00 -1.0000e+00
<mgrwt>
<rscale>  2 0.12500000E+03</rscale>
<asrwt>0</asrwt>
<pdfrwt beam="1">  1       21 0.14332573E-02 0.12500000E+03</pdfrwt>
<pdfrwt beam="2">  1       21 0.58941075E-01 0.12500000E+03</pdfrwt>
<totfact> 0.52692915E+06</totfact>
</mgrwt>
</event>
<event>
 6      0 +9.8758382e+01 1.25000000e+02 7.54677100e-03 1.12640300e-01
       21 -1    0    0  502  501 +0.0000000000e+00 +0.0000000000e+00 +4.6567598978e+02 4.6567598978e+02 0.0000000000e+00 0.0000e+00 -1.0000e+00
       21 -1    0    0  501  502 -0.0000000000e+00 -0.0000000000e+00 -8.3883431522e+00 8.3883431522e+00 0.0000000000e+00 0.0000e+00 -1.0000e+00
       25  2    1    2    0    0 +0.0000000000e+00 +0.0000000000e+00 +4.5728764663e+02 4.7406433293e+02 1.2500000000e+02 0.0000e+00 0.0000e+00
      -15  1    3    3    0    0 -1.5824458057e+01 +4.0693923898e+01 +2.1395134269e+02 2.1836836695e+02 1.7770000000e+00 0.0000e+00 -1.0000e+00
       15  1    3    3    0    0 +3.9318085101e+01 -2.5801384256e+01 +1.8748323698e+02 1.9329962526e+02 1.7770000000e+00 0.0000e+00 -1.0000e+00
       22  1    3    3    0    0 -2.3493627044e+01 -1.4892539642e+01 +5.5853067011e+01 6.2396340784e+01 0.0000000000e+00 0.0000e+00 -1.0000e+00
<mgrwt>
<rscale>  2 0.12500000E+03</rscale>
<asrwt>0</asrwt>
<pdfrwt beam="1">  1       21 0.68481746E-01 0.12500000E+03</pdfrwt>
<pdfrwt beam="2">  1       21 0.12335802E-02 0.12500000E+03</pdfrwt>
<totfact> 0.47320339E+06</totfact>
</mgrwt>
</event>
<event>
 6      0 +9.8758382e+01 1.25000000e+02 7.54677100e-03 1.12640300e-01
       21 -1    0    0  502  501 +0.0000000000e+00 +0.0000000000e+00 +2.0957765596e+01 2.0957765596e+01 0.0000000000e+00 0.0000e+00 1.0000e+00
       21 -1    0    0  501  502 -0.0000000000e+00 -0.0000000000e+00 -1.8638675875e+02 1.8638675875e+02 0.0000000000e+00 0.0000e+00 1.0000e+00
       25  2    1    2    0    0 +0.0000000000e+00 +0.0000000000e+00 -1.6542899315e+02 2.0734452434e+02 1.2500000000e+02 0.0000e+00 0.0000e+00
      -15  1    3    3    0    0 -3.4941783704e+01 +3.8394203141e+01 -5.9289769498e+01 7.8825614995e+01 1.7770000000e+00 0.0000e+00 -1.0000e+00
       15  1    3    3    0    0 +8.4236182986e+00 +1.2100724203e+01 -2.9036882220e+01 3.2614155355e+01 1.7770000000e+00 0.0000e+00 -1.0000e+00
       22  1    3    3    0    0 +2.6518165406e+01 -5.0494927343e+01 -7.7102341435e+01 9.5904753994e+01 0.0000000000e+00 0.0000e+00 -1.0000e+00
<mgrwt>
<rscale>  2 0.12500000E+03</rscale>
<asrwt>0</asrwt>
<pdfrwt beam="1">  1       21 0.30820243E-02 0.12500000E+03</pdfrwt>
<pdfrwt beam="2">  1       21 0.27409818E-01 0.12500000E+03</pdfrwt>
<totfact> 0.75760676E+06</totfact>
</mgrwt>
</event>
<event>
 6      0 +9.8758382e+01 1.25000000e+02 7.54677100e-03 1.12640300e-01
       21 -1    0    0  502  501 +0.0000000000e+00 +0.0000000000e+00 +1.1945683634e+02 1.1945683634e+02 0.0000000000e+00 0.0000e+00 -1.0000e+00
       21 -1    0    0  501  502 -0.0000000000e+00 -0.0000000000e+00 -3.2700095865e+01 3.2700095865e+01 0.0000000000e+00 0.0000e+00 -1.0000e+00
       25  2    1    2    0    0 +0.0000000000e+00 +0.0000000000e+00 +8.6756740474e+01 1.5215693220e+02 1.2500000000e+02 0.0000e+00 0.0000e+00
      -15  1    3    3    0    0 +1.5483638333e+01 +2.5032575761e+01 +2.1870341524e+01 3.6712974173e+01 1.7770000000e+00 0.0000e+00 -1.0000e+00
       15  1    3    3    0    0 +1.8170607201e+01 -3.3724293409e+01 -3.7258928216e+00 3.8529715004e+01 1.7770000000e+00 0.0000e+00 -1.0000e+00
       22  1    3    3    0    0 -3.3654245534e+01 +8.6917176486e+00 +6.8612291774e+01 7.6914243028e+01 0.0000000000e+00 0.0000e+00 -1.0000e+00
<mgrwt>
<rscale>  2 0.12500000E+03</rscale>
<asrwt>0</asrwt>
<pdfrwt beam="1">  1       21 0.17567182E-01 0.12500000E+03</pdfrwt>
<pdfrwt beam="2">  1       21 0.48088377E-02 0.12500000E+03</pdfrwt>
<totfact> 0.84265340E+06</totfact>
</mgrwt>
</event>
<event>
 6      0 +9.8758382e+01 1.25000000e+02 7.54677100e-03 1.12640300e-01
       21 -1    0    0  502  501 +0.0000000000e+00 +0.0000000000e+00 +2.1873655562e+02 2.1873655562e+02 0.0000000000e+00 0.0000e+00 1.0000e+00
       21 -1    0    0  501  502 -0.0000000000e+00 -0.0000000000e+00 -1.7858240425e+01 1.7858240425e+01 0.0000000000e+00 0.0000e+00 1.0000e+00
       25  2    1    2    0    0 +0.0000000000e+00 +0.0000000000e+00 +2.0087831519e+02 2.3659479604e+02 1.2500000000e+02 0.0000e+00 0.0000e+00
      -15  1    3    3    0    0 -1.4553075411e+01 +1.5557633404e+01 +2.5619792620e+01 3.3367101521e+01 1.7770000000e+00 0.0000e+00 -1.0000e+00
       15  1    3    3    0    0 -3.5369402966e+01 -3.4546769526e+01 +8.3568937107e+01 9.7115389764e+01 1.7770000000e+00 0.0000e+00 -1.0000e+00
       22  1    3    3    0    0 +4.9922478377e+01 +1.8989136122e+01 +9.1689585466e+01 1.0611230476e+02 0.0000000000e+00 0.0000e+00 -1.0000e+00
<mgrwt>
<rscale>  2 0.12500000E+03</rscale>
<asrwt>0</asrwt>
<pdfrwt beam="1">  1       21 0.32167139E-01 0.12500000E+03</pdfrwt>
<pdfrwt beam="2">  1       21 0.26262120E-02 0.12500000E+03</pdfrwt>
<totfact> 0.71757352E+06</totfact>
</mgrwt>
</event>
<event>
 6      0 +9.8758382e+01 1.25000000e+02 7.54677100e-03 1.12640300e-01
       21 -1    0    0  502  501 +0.0000000000e+00 +0.0000000000e+00 +2.6129933994e+01 2.6129933994e+01 0.0000000000e+00 0.0000e+00 -1.0000e+00
       21 -1    0    0  501  502 -0.0000000000e+00 -0.0000000000e+00 -1.4949329764e+02 1.4949329764e+02 0.0000000000e+00 0.0000e+00 -1.0000e+00
       25  2    1    2    0    0 +0.0000000000e+00 +0.0000000000e+00 -1.2336336365e+02 1.7562323164e+02 1.2500000000e+02 0.0000e+00 0.0000e+00
      -15  1    3    3    0    0 +8.7590346837e+00 -4.0202023676e+01 -3.9131264292e+01 5.6809655608e+01 1.7770000000e+00 0.0000e+00 -1.0000e+00
       15  1    3    3    0    0 +1.3225654992e+01 -1.1471071847e+01 -2.2134473466e-02 1.7597205977e+01 1.7770000000e+00 0.0000e+00 -1.0000e+00
       22  1    3    3    0    0 -2.1984689675e+01 +5.1673095522e+01 -8.4209964881e+01 1.0121637005e+02 0.0000000000e+00 0.0000e+00 -1.0000e+00
<mgrwt>
<rscale>  2 0.12500000E+03</rscale>
<asrwt>0</asrwt>
<pdfrwt beam="1">  1       21 0.38426374E-02 0.12500000E+03</pdfrwt>
<pdfrwt beam="2">  1       21 0.21984308E-01 0.12500000E+03</pdfrwt>
<totfact> 0.80481255E+06</totfact>
</mgrwt>
</event>
<event>
 6      0 +9.8758382e+01 1.25000000e+02 7.54677100e-03 1.12640300e-01
       21 -1    0    0  502  501 +0.0000000000e+00 +0.0000000000e+00 +8.1886624545e+00 8.1886624545e+00 0.0000000000e+00 0.0000e+00 1.0000e+00
       21 -1    0    0  501  502 -0.0000000000e+00 -0.0000000000e+00 -4.7703150810e+02 4.7703150810e+02 0.0000000000e+00 0.0000e+00 1.0000e+00
       25  2    1    2    0    0 +0.0000000000e+00 +0.0000000000e+00 -4.6884284565e+02 4.8522017056e+02 1.2500000000e+02 0.0000e+00 0.0000e+00
      -15  1    3    3    0    0 +2.3528679557e+01 +2.4805118560e+01 -1.4448341859e+02 1.4848403499e+02 1.7770000000e+00 0.0000e+00 -1.0000e+00
       15  1    3    3    0    0 -1.7734744981e+01 -2.7902015709e+01 -3.2769835079e+02 3.2936668092e+02 1.7770000000e+00 0.0000e+00 -1.0000e+00
       22  1    3    3    0    0 -5.7939345761e+00 +3.0968971492e+00 +3.3389237506e+00 7.3694546365e+00 0.0000000000e+00 0.0000e+00 -1.0000e+00
<mgrwt>
<rscale>  2 0.12500000E+03</rscale>
<asrwt>0</asrwt>
<pdfrwt beam="1">  1       21 0.12042152E-02 0.12500000E+03</pdfrwt>
<pdfrwt beam="2">  1       21 0.70151686E-01 0.12500000E+03</pdfrwt>
<totfact> 0.46445963E+06</totfact>
</mgrwt>
</event>
<event>
 6      0 +9.8758382e+01 1.25000000e+02 7.54677100e-03 1.12640300e-01
       21 -1    0    0  502  501 +0.0000000000e+00 +0.0000000000e+00 +2.8373395647e+01 2.8373395647e+01 0.0000000000e+00 0.0000e+00 1.0000e+00
       21 -1    0    0  501  502 -0.0000000000e+00 -0.0000000000e+00 -1.3767298242e+02 1.3767298242e+02 0.0000000000e+00 0.0000e+00 1.0000e+00
       25  2    1    2    0    0 +0.0000000000e+00 +0.0000000000e+00 -1.0929958677e+02 1.6604637806e+02 1.2500000000e+02 0.0000e+00 0.0000e+00
      -15  1    3    3    0    0 +9.9898335592e+00 -2.9680848452e+00 -1.0596647534e+02 1.0649252522e+02 1.7770000000e+00 0.0000e+00 -1.0000e+00
       15  1    3    3    0    0 -1.6295523839e+01 -1.4194930253e+01 +2.0279543346e+01 2.9689354143e+01 1.7770000000e+00 0.0000e+00 -1.0000e+00
       22  1    3    3    0    0 +6.3056902796e+00 +1.7163015098e+01 -2.3612654776e+01 2.9864498703e+01 0.0000000000e+00 0.0000e+00 -1.0000e+00
<mgrwt>
<rscale>  2 0.12500000E+03</rscale>
<asrwt>0</asrwt>
<pdfrwt beam="1">  1       21 0.41725582E-02 0.12500000E+03</pdfrwt>
<pdfrwt beam="2">  1       21 0.20246027E-01 0.12500000E+03</pdfrwt>
<totfact> 0.81996967E+06</totfact>
</mgrwt>
</event>
<event>
 6      0 +9.8758382e+01 1.25000000e+02 7.54677100e-03 1.12640300e-01
       21 -1    0    0  502  501 +0.0000000000e+00 +0.0000000000e+00 +1.0934745124e+03 1.0934745124e+03 0.0000000000e+00 0.0000e+00 1.0000e+00
       21 -1    0    0  501  502 -0.0000000000e+00 -0.0000000000e+00 -3.5723283496e+00 3.5723283496e+00 0.0000000000e+00 0.0000e+00 1.0000e+00
       25  2    1    2    0    0 +0.0000000000e+00 +0.0000000000e+00 +1.0899021840e+03 1.0970468407e+03 1.2500000000e+02 0.0000e+00 0.0000e+00
      -15  1    3    3    0    0 +8.5109914564e+00 -1.3765574144e+01 +3.7020719416e+02 3.7056504469e+02 1.7770000000e+00 0.0000e+00 -1.0000e+00
       15  1    3    3    0    0 -7.3152572724e+00 -3.9311250875e+01 +4.3819381583e+02 4.4001802849e+02 1.7770000000e+00 0.0000e+00 -1.0000e+00
       22  1    3    3    0    0 -1.1957341841e+00 +5.3076825019e+01 +2.8150117394e+02 2.8646376745e+02 0.0000000000e+00 0.0000e+00 -1.0000e+00
<mgrwt>
<rscale>  2 0.12500000E+03</rscale>
<asrwt>0</asrwt>
<pdfrwt beam="1">  1       21 0.16080484E+00 0.12500000E+03</pdfrwt>
<pdfrwt beam="2">  1       21 0.52534316E-03 0.12500000E+03</pdfrwt>
<totfact> 0.18483009E+06</totfact>
</mgrwt>
</event>
<event>
 6      0 +9.8758382e+01 1.25000000e+02 7.54677100e-03 1.12640300e-01
       21 -1    0    0  502  501 +0.0000000000e+00 +0.0000000000e+00 +6.5758809384e+02 6.5758809384e+02 0.0000000000e+00 0.0000e+00 -1.0000e+00
       21 -1    0    0  501  502 -0.0000000000e+00 -0.0000000000e+00 -5.9402687436e+00 5.9402687436e+00 0.0000000000e+00 0.0000e+00 -1.0000e+00
       25  2    1    2    0    0 +0.0000000000e+00 +0.0000000000e+00 +6.5164782509e+02 6.6352836258e+02 1.2500000000e+02 0.0000e+00 0.0000e+00
      -15  1    3    3    0    0 +1.7993319383e+01 +2.3845074630e+01 +5.2355900573e+01 6.0304603310e+01 1.7770000000e+00 0.0000e+00 -1.0000e+00
       15  1    3    3    0    0 -7.3717732928e+00 -4.0829894840e+01 +2.5587587983e+02 2.5922393208e+02 1.7770000000e+00 0.0000e+00 -1.0000e+00
       22  1    3    3    0    0 -1.0621546091e+01 +1.6984820209e+01 +3.4341604461e+02 3.4399982711e+02 0.0000000000e+00 0.0000e+00 -1.0000e+00
<mgrwt>
<rscale>  2 0.12500000E+03</rscale>
<asrwt>0</asrwt>
<pdfrwt beam="1">  1       21 0.96704081E-01 0.12500000E+03</pdfrwt>
<pdfrwt beam="2">  1       21 0.87356939E-03 0.12500000E+03</pdfrwt>
<totfact> 0.34820488E+06</totfact>
</mgrwt>
</event>
<event>
 6      0 +9.8758382e+01 1.25000000e+02 7.54677100e-03 1.12640300e-01
       21 -1    0    0  502  501 +0.0000000000e+00 +0.0000000000e+00 +4.9486877074e+01 4.9486877074e+01 0.0000000000e+00 0.0000e+00 1.0000e+00
       21 -1    0    0  501  502 -0.0000000000e+00 -0.0000000000e+00 -7.8935067860e+01 7.8935067860e+01 0.0000000000e+00 0.0000e+00 1.0000e+00
       25  2    1    2    0    0 +0.0000000000e+00 +0.0000000000e+00 -2.9448190786e+01 1.2842194493e+02 1.2500000000e+02 0.0000e+00 0.0000e+00
      -15  1    3    3    0    0 -1.8998055494e+01 +1.1401788428e+01 +4.0971545342e+00 2.2602462171e+01 1.7770000000e+00 0.0000e+00 -1.0000e+00
       15  1    3    3    0    0 -1.6910099374e+01 -4.2589420634e+01 +2.8260044119e+00 4.5945122056e+01 1.7770000000e+00 0.0000e+00 -1.0000e+00
       22  1    3    3    0    0 +3.5908154868e+01 +3.1187632206e+01 -3.6371349733e+01 5.9874360707e+01 0.0000000000e+00 0.0000e+00 -1.0000e+00
<mgrwt>
<rscale>  2 0.12500000E+03</rscale>
<asrwt>0</asrwt>
<pdfrwt beam="1">  1       21 0.72774820E-02 0.12500000E+03</pdfrwt>
<pdfrwt beam="2">  1       21 0.11608098E-01 0.12500000E+03</pdfrwt>
<totfact> 0.88382873E+06</totfact>
</mgrwt>
</event>
<event>
 6      0 +9.8758382e+01 1.25000000e+02 7.54677100e-03 1.12640300e-01
       21 -1    0    0  502  501 +0.0000000000e+00 +0.0000000000e+00 +3.6993614376e+02 3.6993614376e+02 0.0000000000e+00 0.0000e+00 -1.0000e+00
       21 -1    0    0  501  502 -0.0000000000e+00 -0.0000000000e+00 -1.0559254795e+01 1.0559254795e+01 0.0000000000e+00 0.0000e+00 -1.0000e+00
       25  2    1    2    0    0 +0.0000000000e+00 +0.0000000000e+00 +3.5937688897e+02 3.8049539856e+02 1.2500000000e+02 0.0000e+00 0.0000e+00
      -15  1    3    3    0    0 +1.0730773878e+01 -2.4775256493e+01 +1.4156457384e+02 1.4412719777e+02 1.7770000000e+00 0.0000e+00 -1.0000e+00
       15  1    3    3    0    0 +2.9979519964e+01 +1.0555338873e+01 +1.6568917145e+02 1.6871943000e+02 1.7770000000e+00 0.0000e+00 -1.0000e+00
       22  1    3    3    0    0 -4.0710293842e+01 +1.4219917620e+01 +5.2123143692e+01 6.7648770796e+01 0.0000000000e+00 0.0000e+00 -1.0000e+00
<mgrwt>
<rscale>  2 0.12500000E+03</rscale>
<asrwt>0</asrwt>
<pdfrwt beam="1">  1       21 0.54402365E-01 0.12500000E+03</pdfrwt>
<pdfrwt beam="2">  1       21 0.15528318E-02 0.12500000E+03</pdfrwt>
<totfact> 0.55496844E+06</totfact>
</mgrwt>
</event>
<event>
 6      0 +9.8758382e+01 1.25000000e+02 7.54677100e-03 1.12640300e-01
       21 -1    0    0  502  501 +0.0000000000e+00 +0.0000000000e+00 +5.6266858176e+01 5.6266858176e+01 0.0000000000e+00 0.0000e+00 -1.0000e+00
       21 -1    0    0  501  502 -0.0000000000e+00 -0.0000000000e+00 -6.9423638117e+01 6.9423638117e+01 0.0000000000e+00 0.0000e+00 -1.0000e+00
       25  2    1    2    0    0 +0.0000000000e+00 +0.0000000000e+00 -1.3156779940e+01 1.2569049629e+02 1.2500000000e+02 0.0000e+00 0.0000e+00
      -15  1    3    3    0    0 +3.5300138407e+01 +3.4121320281e+01 -3.9126345886e+00 4.9283168604e+01 1.7770000000e+00 0.0000e+00 -1.0000e+00
       15  1    3    3    0    0 +6.3230082056e+00 -2.3981495737e+01 -2.0372850688e+01 3.2145036082e+01 1.7770000000e+00 0.0000e+00 -1.0000e+00
       22  1    3    3    0    0 -4.1623146613e+01 -1.0139824544e+01 +1.1128705337e+01 4.4262291606e+01 0.0000000000e+00 0.0000e+00 -1.0000e+00
<mgrwt>
<rscale>  2 0.12500000E+03</rscale>
<asrwt>0</asrwt>
<pdfrwt beam="1">  1       21 0.82745380E-02 0.12500000E+03</pdfrwt>
<pdfrwt beam="2">  1       21 0.10209359E-01 0.12500000E+03</pdfrwt>
<totfact> 0.88868157E+06</totfact>
</mgrwt>
</event>
<event>
 6      0 +9.8758382e+01 1.25000000e+02 7.54677100e-03 1.12640300e-01
       21 -1    0    0  502  501 +0.0000000000e+00 +0.0000000000e+00 +9.1946896034e+00 9.1946896034e+00 0.0000000000e+00 0.0000e+00 1.0000e+00
       21 -1    0    0  501  502 -0.0000000000e+00 -0.0000000000e+00 -4.2483761481e+02 4.2483761481e+02 0.0000000000e+00 0.0000e+00 1.0000e+00
       25  2    1    2    0    0 +0.0000000000e+00 +0.0000000000e+00 -4.1564292520e+02 4.3403230441e+02 1.2500000000e+02 0.0000e+00 0.0000e+00
      -15  1    3    3    0    0 -1.9472027949e+01 -1.6758832837e+01 -2.3579264290e+02 2.3719474389e+02 1.7770000000e+00 0.0000e+00 -1.0000e+00
       15  1    3    3    0    0 +9.7792832915e+00 +5.8792251875e+00 -1.8177367237e+02 1.8214012564e+02 1.7770000000e+00 0.0000e+00 -1.0000e+00
       22  1    3    3    0    0 +9.6927446578e+00 +1.0879607649e+01 +1.9233901140e+00 1.4697434847e+01 0.0000000000e+00 0.0000e+00 -1.0000e+00
<mgrwt>
<rscale>  2 0.12500000E+03</rscale>
<asrwt>0</asrwt>
<pdfrwt beam="1">  1       21 0.13521602E-02 0.12500000E+03</pdfrwt>
<pdfrwt beam="2">  1       21 0.62476120E-01 0.12500000E+03</pdfrwt>
<totfact> 0.50624756E+06</totfact>
</mgrwt>
</event>
<event>
 6      0 +9.8758382e+01 1.25000000e+02 7.54677100e-03 1.12640300e-01
       21 -1    0    0  502  501 +0.0000000000e+00 +0.0000000000e+00 +8.5591551001e+02 8.5591551001e+02 0.0000000000e+00 0.0000e+00 -1.0000e+00
       21 -1    0    0  501  502 -0.0000000000e+00 -0.0000000000e+00 -4.5638266328e+00 4.5638266328e+00 0.0000000000e+00 0.0000e+00 -1.0000e+00
       25  2    1    2    0    0 +0.0000000000e+00 +0.0000000000e+00 +8.5135168337e+02 8.6047933664e+02 1.2500000000e+02 0.0000e+00 0.0000e+00
      -15  1    3    3    0    0 +4.0182414642e+00 -1.0825921371e+01 +1.9018690448e+01 2.2320733710e+01 1.7770000000e+00 0.0000e+00 -1.0000e+00
       15  1    3    3    0    0 -2.7148204243e+01 +4.6865981687e+01 +3.8785199920e+02 3.9161942782e+02 1.7770000000e+00 0.0000e+00 -1.0000e+00
       22  1    3    3    0    0 +2.3129962779e+01 -3.6040060316e+01 +4.4448099352e+02 4.4653917491e+02 0.0000000000e+00 0.0000e+00 -1.0000e+00
<mgrwt>
<rscale>  2 0.12500000E+03</rscale>
<asrwt>0</asrwt>
<pdfrwt beam="1">  1       21 0.12586982E+00 0.12500000E+03</pdfrwt>
<pdfrwt beam="2">  1       21 0.67115157E-03 0.12500000E+03</pdfrwt>
<totfact> 0.25871842E+06</totfact>
</mgrwt>
</event>
<event>
 6      0 +9.8758382e+01 1.25000000e+02 7.54677100e-03 1.12640300e-01
       21 -1    0    0  502  501 +0.0000000000e+00 +0.0000000000e+00 +4.2587085839e+00 4.2587085839e+00 0.0000000000e+00 0.0000e+00 -1.0000e+00
       21 -1    0    0  501  502 -0.0000000000e+00 -0.0000000000e+00 -9.1723815402e+02 9.1723815402e+02 0.0000000000e+00 0.0000e+00 -1.0000e+00
       25  2    1    2    0    0 +0.0000000000e+00 +0.0000000000e+00 -9.1297944543e+02 9.2149686260e+02 1.2500000000e+02 0.0000e+00 0.0000e+00
      -15  1    3    3    0    0 -9.6502584388e+00 +5.0557920091e+00 -8.2954099063e+02 8.2961442935e+02 1.7770000000e+00 0.0000e+00 -1.0000e+00
       15  1    3    3    0    0 +1.0270684675e+01 +1.4874858285e+01 -3.3441368626e+01 3.8055633449e+01 1.7770000000e+00 0.0000e+00 -1.0000e+00
       22  1    3    3    0    0 -6.2042623626e-01 -1.9930650295e+01 -4.9997086053e+01 5.3826799679e+01 0.0000000000e+00 0.0000e+00 -1.0000e+00
<mgrwt>
<rscale>  2 0.12500000E+03</rscale>
<asrwt>0</asrwt>
<pdfrwt beam="1">  1       21 0.62628033E-03 0.12500000E+03</pdfrwt>
<pdfrwt beam="2">  1       21 0.13488804E+00 0.12500000E+03</pdfrwt>
<totfact> 0.23686397E+06</totfact>
</mgrwt>
</event>
<event>
 6      0 +9.8758382e+01 1.25000000e+02 7.54677100e-03 1.12640300e-01
       21 -1    0    0  502  501 +0.0000000000e+00 +0.0000000000e+00 +8.8964244132e+00 8.8964244132e+00 0.0000000000e+00 0.0000e+00 1.0000e+00
       21 -1    0    0  501  502 -0.0000000000e+00 -0.0000000000e+00 -4.3908089571e+02 4.3908089571e+02 0.0000000000e+00 0.0000e+00 1.0000e+00
       25  2    1    2    0    0 +0.0000000000e+00 +0.0000000000e+00 -4.3018447130e+02 4.4797732013e+02 1.2500000000e+02 0.0000e+00 0.0000e+00
      -15  1    3    3    0    0 -7.1128586669e+00 -1.3480317812e+01 -2.0895994089e+02 2.0952261537e+02 1.7770000000e+00 0.0000e+00 -1.0000e+00
       15  1    3    3    0    0 +2.1268887101e+01 +2.7111745932e+01 -2.1512950037e+02 2.1787903062e+02 1.7770000000e+00 0.0000e+00 -1.0000e+00
       22  1    3    3    0    0 -1.4156028434e+01 -1.3631428120e+01 -6.0950299938e+00 2.0575674088e+01 0.0000000000e+00 0.0000e+00 -1.0000e+00
<mgrwt>
<rscale>  2 0.12500000E+03</rscale>
<asrwt>0</asrwt>
<pdfrwt beam="1">  1       21 0.13082973E-02 0.12500000E+03</pdfrwt>
<pdfrwt beam="2">  1       21 0.64570740E-01 0.12500000E+03</pdfrwt>
<totfact> 0.49444045E+06</totfact>
</mgrwt>
</event>
<event>
 6      0 +9.8758382e+01 1.25000000e+02 7.54677100e-03 1.12640300e-01
       21 -1    0    0  502  501 +0.0000000000e+00 +0.0000000000e+00 +8.1399508700e+01 8.1399508700e+01 0.0000000000e+00 0.0000e+00 -1.0000e+00
       21 -1    0    0  501  502 -0.0000000000e+00 -0.0000000000e+00 -4.7988618880e+01 4.7988618880e+01 0.0000000000e+00 0.0000e+00 -1.0000e+00
       25  2    1    2    0    0 +0.0000000000e+00 +0.0000000000e+00 +3.3410889820e+01 1.2938812758e+02 1.2500000000e+02 0.0000e+00 0.0000e+00
      -15  1    3    3    0    0 -2.5062598020e+01 -1.8657004145e+01 +3.0401549654e+01 4.3630603635e+01 1.7770000000e+00 0.0000e+00 -1.0000e+00
       15  1    3    3    0    0 +1.1146555855e+01 +4.1419248933e+01 +2.6297557768e+01 5.0344008215e+01 1.7770000000e+00 0.0000e+00 -1.0000e+00
       22  1    3    3    0    0 +1.3916042165e+01 -2.2762244788e+01 -2.3288217601e+01 3.5413515731e+01 0.0000000000e+00 0.0000e+00 -1.0000e+00
<mgrwt>
<rscale>  2 0.12500000E+03</rscale>
<asrwt>0</asrwt>
<pdfrwt beam="1">  1       21 0.11970516E-01 0.12500000E+03</pdfrwt>
<pdfrwt beam="2">  1       21 0.70571498E-02 0.12500000E+03</pdfrwt>
<totfact> 0.88209230E+06</totfact>
</mgrwt>
</event>
<event>
 6      0 +9.8758382e+01 1.25000000e+02 7.54677100e-03 1.12640300e-01
       21 -1    0    0  502  501 +0.0000000000e+00 +0.0000000000e+00 +1.3059342945e+02 1.3059342945e+02 0.0000000000e+00 0.0000e+00 -1.0000e+00
       21 -1    0    0  501  502 -0.0000000000e+00 -0.0000000000e+00 -2.9911535493e+01 2.9911535493e+01 0.0000000000e+00 0.0000e+00 -1.0000e+00
       25  2    1    2    0    0 +0.0000000000e+00 +0.0000000000e+00 +1.0068189395e+02 1.6050496494e+02 1.2500000000e+02 0.0000e+00 0.0000e+00
      -15  1    3    3    0    0 +1.9183948421e+01 -1.0547563251e+01 +3.3253295075e+01 3.9852406827e+01 1.7770000000e+00 0.0000e+00 -1.0000e+00
       15  1    3    3    0    0 -1.8900957105e+00 -1.4881539378e+01 +8.4254472005e+01 8.5597934893e+01 1.7770000000e+00 0.0000e+00 -1.0000e+00
       22  1    3    3    0    0 -1.7293852711e+01 +2.5429102628e+01 -1.6825873134e+01 3.5054623215e+01 0.0000000000e+00 0.0000e+00 -1.0000e+00
<mgrwt>
<rscale>  2 0.12500000E+03</rscale>
<asrwt>0</asrwt>
<pdfrwt beam="1">  1       21 0.19204916E-01 0.12500000E+03</pdfrwt>
<pdfrwt beam="2">  1       21 0.43987553E-02 0.12500000E+03</pdfrwt>
<totfact> 0.82896462E+06</totfact>
</mgrwt>
</event>
<event>
 6      0 +9.8758382e+01 1.25000000e+02 7.54677100e-03 1.12640300e-01
       21 -1    0    0  502  501 +0.0000000000e+00 +0.0000000000e+00 +4.8526054930e+01 4.8526054930e+01 0.0000000000e+00 0.0000e+00 1.0000e+00
       21 -1    0    0  501  502 -0.0000000000e+00 -0.0000000000e+00 -8.0497992380e+01 8.0497992380e+01 0.0000000000e+00 0.0000e+00 1.0000e+00
       25  2    1    2    0    0 +0.0000000000e+00 +0.0000000000e+00 -3.1971937450e+01 1.2902404731e+02 1.2500000000e+02 0.0000e+00 0.0000e+00
      -15  1    3    3    0    0 +3.3040680519e+01 +3.5344940665e+00 +2.9470329034e+00 3.3406914694e+01 1.7770000000e+00 0.0000e+00 -1.0000e+00
       15  1    3    3    0    0 +1.9524601343e+01 -2.3418644379e+01 -2.2807832995e+00 3.0626829147e+01 1.7770000000e+00 0.0000e+00 -1.0000e+00
       22  1    3    3    0    0 -5.2565281862e+01 +1.9884150312e+01 -3.2638187054e+01 6.4990303469e+01 0.0000000000e+00 0.0000e+00 -1.0000e+00
<mgrwt>
<rscale>  2 0.12500000E+03</rscale>
<asrwt>0</asrwt>
<pdfrwt beam="1">  1       21 0.71361847E-02 0.12500000E+03</pdfrwt>
<pdfrwt beam="2">  1       21 0.11837940E-01 0.12500000E+03</pdfrwt>
<totfact> 0.88274993E+06</totfact>
</mgrwt>
</event>
<event>
 6      0 +9.8758382e+01 1.25000000e+02 7.54677100e-03 1.12640300e-01
       21 -1    0    0  502  501 +0.0000000000e+00 +0.0000000000e+00 +4.2708842120e+02 4.2708842120e+02 0.0000000000e+00 0.0000e+00 -1.0000e+00
       21 -1    0    0  501  502 -0.0000000000e+00 -0.0000000000e+00 -9.1462325040e+00 9.1462325040e+00 0.0000000000e+00 0.0000e+00 -1.0000e+00
       25  2    1    2    0    0 +0.0000000000e+00 +0.0000000000e+00 +4.1794218869e+02 4.3623465370e+02 1.2500000000e+02 0.0000e+00 0.0000e+00
      -15  1    3    3    0    0 -4.1007472522e+01 -1.7853644387e+01 +1.5568438853e+02 1.6199120958e+02 1.7770000000e+00 0.0000e+00 -1.0000e+00
       15  1    3    3    0    0 +1.1527514215e+01 +5.8828678056e+00 +2.2444601579e+02 2.2482585139e+02 1.7770000000e+00 0.0000e+00 -1.0000e+00
       22  1    3    3    0    0 +2.9479958306e+01 +1.1970776582e+01 +3.7811784338e+01 4.9417592702e+01 0.0000000000e+00 0.0000e+00 -1.0000e+00
<mgrwt>
<rscale>  2 0.12500000E+03</rscale>
<asrwt>0</asrwt>
<pdfrwt beam="1">  1       21 0.62807107E-01 0.12500000E+03</pdfrwt>
<pdfrwt beam="2">  1       21 0.13450345E-02 0.12500000E+03</pdfrwt>
<totfact> 0.50436032E+06</totfact>
</mgrwt>
</event>
<event>
 6      0 +9.8758382e+01 1.25000000e+02 7.54677100e-03 1.12640300e-01
       21 -1    0    0  502  501 +0.0000000000e+00 +0.0000000000e+00 +5.5485650477e+00 5.5485650477e+00 0.0000000000e+00 0.0000e+00 1.0000e+00
       21 -1    0    0  501  502 -0.0000000000e+00 -0.0000000000e+00 -7.0401085081e+02 7.0401085081e+02 0.0000000000e+00 0.0000e+00 1.0000e+00
       25  2    1    2    0    0 +0.0000000000e+00 +0.0000000000e+00 -6.9846228576e+02 7.0955941585e+02 1.2500000000e+02 0.0000e+00 0.0000e+00
      -15  1    3    3    0    0 +4.0928404744e+01 -7.2131133605e+00 -2.1470540841e+02 2.1869781309e+02 1.7770000000e+00 0.0000e+00 -1.0000e+00
       15  1    3    3    0    0 +1.9241914151e+01 -7.1330901554e+00 -9.4344787813e+01 9.6567225039e+01 1.7770000000e+00 0.0000e+00 -1.0000e+00
       22  1    3    3    0    0 -6.0170318895e+01 +1.4346203516e+01 -3.8941208971e+02 3.9429437790e+02 0.0000000000e+00 0.0000e+00 -1.0000e+00
<mgrwt>
<rscale>  2 0.12500000E+03</rscale>
<asrwt>0</asrwt>
<pdfrwt beam="1">  1       21 0.81596512E-03 0.12500000E+03</pdfrwt>
<pdfrwt beam="2">  1       21 0.10353105E+00 0.12500000E+03</pdfrwt>
<totfact> 0.32431140E+06</totfact>
</mgrwt>
</event>
<event>
 6      0 +9.8758382e+01 1.25000000e+02 7.54677100e-03 1.12640300e-01
       21 -1    0    0  502  501 +0.0000000000e+00 +0.0000000000e+00 +4.4173665965e+00 4.4173665965e+00 0.0000000000e+00 0.0000e+00 -1.0000e+00
       21 -1    0    0  501  502 -0.0000000000e+00 -0.0000000000e+00 -8.8429382408e+02 8.8429382408e+02 0.0000000000e+00 0.0000e+00 -1.0000e+00
       25  2    1    2    0    0 +0.0000000000e+00 +0.0000000000e+00 -8.7987645749e+02 8.8871119068e+02 1.2500000000e+02 0.0000e+00 0.0000e+00
      -15  1    3    3    0    0 -1.7045799987e+01 +5.0566228853e+00 -1.8232650751e+02 1.8320000492e+02 1.7770000000e+00 0.0000e+00 -1.0000e+00
       15  1    3    3    0    0 -1.3517844833e+00 -5.1347055900e+01 -4.5539052090e+02 4.5828160745e+02 1.7770000000e+00 0.0000e+00 -1.0000e+00
       22  1    3    3    0    0 +1.8397584470e+01 +4.6290433014e+01 -2.4215942923e+02 2.4722957846e+02 0.0000000000e+00 0.0000e+00 -1.0000e+00
<mgrwt>
<rscale>  2 0.12500000E+03</rscale>
<asrwt>0</asrwt>
<pdfrwt beam="1">  1       21 0.64961243E-03 0.12500000E+03</pdfrwt>
<pdfrwt beam="2">  1       21 0.13004327E+00 0.12500000E+03</pdfrwt>
<totfact> 0.24831751E+06</totfact>
</mgrwt>
</event>
<event>
 6      0 +9.8758382e+01 1.25000000e+02 7.54677100e-03 1.12640300e-01
       21 -1    0    0  502  501 +0.0000000000e+00 +0.0000000000e+00 +7.7601706494e+00 7.7601706494e+00 0.0000000000e+00 0.0000e+00 1.0000e+00
       21 -1    0    0  501  502 -0.0000000000e+00 -0.0000000000e+00 -5.0337166236e+02 5.0337166236e+02 0.0000000000e+00 0.0000e+00 1.0000e+00
       25  2    1    2    0    0 +0.0000000000e+00 +0.0000000000e+00 -4.9561149172e+02 5.1113183301e+02 1.2500000000e+02 0.0000e+00 0.0000e+00
      -15  1    3    3    0    0 -1.4109515367e+01 +1.9744179013e+01 -7.3929374768e+01 7.7830721514e+01 1.7770000000e+00 0.0000e+00 -1.0000e+00
       15  1    3    3    0    0 +1.8101750280e+01 +2.1535119986e+01 -3.7634162204e+01 4.7020449273e+01 1.7770000000e+00 0.0000e+00 -1.0000e+00
       22  1    3    3    0    0 -3.9922349129e+00 -4.1279298999e+01 -3.8404795489e+02 3.8628066237e+02 0.0000000000e+00 0.0000e+00 -1.0000e+00
<mgrwt>
<rscale>  2 0.12500000E+03</rscale>
<asrwt>0</asrwt>
<pdfrwt beam="1">  1       21 0.11412012E-02 0.12500000E+03</pdfrwt>
<pdfrwt beam="2">  1       21 0.74025268E-01 0.12500000E+03</pdfrwt>
<totfact> 0.44508304E+06</totfact>
</mgrwt>
</event>
<event>
 6      0 +9.8758382e+01 1.25000000e+02 7.54677100e-03 1.12640300e-01
       21 -1    0    0  502  501 +0.0000000000e+00 +0.0000000000e+00 +3.0671714647e+01 3.0671714647e+01 0.0000000000e+00 0.0000e+00 1.0000e+00
       21 -1    0    0  501  502 -0.0000000000e+00 -0.0000000000e+00 -1.2735675344e+02 1.2735675344e+02 0.0000000000e+00 0.0000e+00 1.0000e+00
       25  2    1    2    0    0 +0.0000000000e+00 +0.0000000000e+00 -9.6685038798e+01 1.5802846809e+02 1.2500000000e+02 0.0000e+00 0.0000e+00
      -15  1    3    3    0    0 +2.8443529054e+01 -1.1828433002e+01 +2.5716015178e+00 3.0963156100e+01 1.7770000000e+00 0.0000e+00 -1.0000e+00
       15  1    3    3    0    0 -5.3237368422e+01 +5.7656360628e+00 -6.2600719795e+01 8.2398226945e+01 1.7770000000e+00 0.0000e+00 -1.0000e+00
       22  1    3    3    0    0 +2.4793839369e+01 +6.0627969392e+00 -3.6655920523e+01 4.4667085048e+01 0.0000000000e+00 0.0000e+00 -1.0000e+00
<mgrwt>
<rscale>  2 0.12500000E+03</rscale>
<asrwt>0</asrwt>
<pdfrwt beam="1">  1       21 0.45105462E-02 0.12500000E+03</pdfrwt>
<pdfrwt beam="2">  1       21 0.18728935E-01 0.12500000E+03</pdfrwt>
<totfact> 0.83299923E+06</totfact>
</mgrwt>
</event>
</LesHouchesEvents>
