<LesHouchesEvents version="3.0">
<header>
<!--
#*********************************************************************
#                                                                    *
#                        MadGraph5_aMC@NLO                           *
#                                                                    *
#                           Going Beyond                             *
#                                                                    *
#                   http://madgraph.hep.uiuc.edu                     *
#                   http://madgraph.phys.ucl.ac.be                   *
#                   http://amcatnlo.cern.ch                          *
#                                                                    *
#                     The MadGraph5_aMC@NLO team                     *
#                                                                    *
#....................................................................*
#                                                                    *
# This file contains all the information necessary to reproduce      *
# the events generated:                                              *
#                                                                    *
# 1. software version                                                *
# 2. proc_card          : code generation info including model       *
# 3. param_card         : model primary parameters in the LH format  *
# 4. run_card           : running parameters (collider and cuts)     *
# 5. pythia_card        : present only if pythia has been run        *
# 6. pgs_card           : present only if pgs has been run           *
# 7. delphes_cards      : present only if delphes has been run       *
#                                                                    *
#                                                                    *
#*********************************************************************
-->
<MGVersion>
2.9.9
</MGVersion>
<MG5ProcCard>
<![CDATA[
#************************************************************
#*                     MadGraph5_aMC@NLO                    *
#*                                                          *
#*                *                       *                 *
#*                  *        * *        *                   *
#*                    * * * * 5 * * * *                     *
#*                  *        * *        *                   *
#*                *                       *                 *
#*                                                          *
#*                                                          *
#*         VERSION 2.9.9                 2022-02-25         *
#*                                                          *
#*    The MadGraph5_aMC@NLO Development Team - Find us at   *
#*    https://server06.fynu.ucl.ac.be/projects/madgraph     *
#*                                                          *
#************************************************************
#*                                                          *
#*               Command File for MadGraph5_aMC@NLO         *
#*                                                          *
#*     run as ./bin/mg5_aMC  filename                       *
#*                                                          *
#************************************************************
set group_subprocesses Auto
set ignore_six_quark_processes False
set low_mem_multicore_nlo_generation False
set complex_mass_scheme False
set gauge unitary
set loop_optimized_output True
set loop_color_flows False
set max_npoint_for_channel 0
set default_unset_couplings 99
set max_t_for_channel 99
set zerowidth_tchannel True
import model loop_sm-no_b_mass
define p = g u c d s u~ c~ d~ s~
define j = g u c d s u~ c~ d~ s~
define l+ = e+ mu+
define l- = e- mu-
define vl = ve vm vt
define vl~ = ve~ vm~ vt~
define p = 21 2 4 1 3 -2 -4 -1 -3 5 -5 # pass to 5 flavors
define j = p
define p = p b b~
define j = j b b~
generate p p > h [QCD]
output HToTauTauGamma_NLO_5f -nojpeg
]]>
</MG5ProcCard>
<MGProcCard>
#*********************************************************************
#                        MadGraph/MadEvent                           *
#                   http://madgraph.hep.uiuc.edu                     *
#                                                                    *
#                          proc_card.dat                             *
#*********************************************************************
#                                                                    *
#            This Files is generated by MADGRAPH 5                   *
#                                                                    *
# WARNING: This Files is generated for MADEVENT (compatibility issue)*
#          This files is NOT a valid MG4 proc_card.dat               *
#          Running this in MG4 will NEVER reproduce the result of MG5*
#                                                                    *
#*********************************************************************
#*********************************************************************
# Process(es) requested : mg2 input                                  *
#*********************************************************************
# Begin PROCESS # This is TAG. Do not modify this line
p p > h [QCD]           #Process
# Be carefull the coupling are here in MG5 convention
          
end_coup           # End the couplings input

done               # this tells MG there are no more procs
# End PROCESS  # This is TAG. Do not modify this line
#*********************************************************************
# Model information                                                  *
#*********************************************************************
# Begin MODEL  # This is TAG. Do not modify this line
loop_sm-no_b_mass
# End   MODEL  # This is TAG. Do not modify this line
#*********************************************************************
# Start multiparticle definitions                                    *
#*********************************************************************
# Begin MULTIPARTICLES # This is TAG. Do not modify this line

# End  MULTIPARTICLES # This is TAG. Do not modify this line
</MGProcCard>
<MGRunCard>
<![CDATA[
#*********************************************************************
#                       MadGraph5_aMC@NLO                            *
#                                                                    *
#                     run_card.dat MadEvent                          *
#                                                                    *
#  This file is used to set the parameters of the run.               *
#                                                                    *
#  Some notation/conventions:                                        *
#                                                                    *
#   Lines starting with a '# ' are info or comments                  *
#                                                                    *
#   mind the format:   value    = variable     ! comment             *
#                                                                    *
#   To display more options, you can type the command:               *
#      update to_full                                                *
#*********************************************************************
#                                                                    
#*********************************************************************
# Tag name for the run (one word)                                    *
#*********************************************************************
  tag_1	= run_tag ! name of the run 
#*********************************************************************
# Number of events and rnd seed                                      *
# Warning: Do not generate more than 1M events in a single run       *
#*********************************************************************
  5000	= nevents ! Number of unweighted events requested 
 234567 = iseed ! rnd seed (0=assigned automatically=default))
#*********************************************************************
# Collider type and energy                                           *
# lpp: 0=No PDF, 1=proton, -1=antiproton, 2=photon from proton,      *
#                3=photon from electron, 4=photon from muon          *
#*********************************************************************
  1	= lpp1 ! beam 1 type 
  1	= lpp2 ! beam 2 type
  6800.0	= ebeam1 ! beam 1 total energy in GeV
  6800.0	= ebeam2 ! beam 2 total energy in GeV
# To see polarised beam options: type "update beam_pol"

#*********************************************************************
# PDF CHOICE: this automatically fixes also alpha_s and its evol.    *
#*********************************************************************
  lhapdf	= pdlabel ! PDF set                                     
  325300	= lhaid ! if pdlabel=lhapdf, this is the lhapdf number
# To see heavy ion options: type "update ion_pdf"
#*********************************************************************
# Renormalization and factorization scales                           *
#*********************************************************************
  False	= fixed_ren_scale ! if .true. use fixed ren scale
  False	= fixed_fac_scale ! if .true. use fixed fac scale
  91.188	= scale ! fixed ren scale
  91.188	= dsqrt_q2fact1 ! fixed fact scale for pdf1
  91.188	= dsqrt_q2fact2 ! fixed fact scale for pdf2
  -1	= dynamical_scale_choice ! Choose one of the preselected dynamical choices
  1.0	= scalefact ! scale factor for event-by-event scales
#*********************************************************************
# Type and output format
#*********************************************************************
  True	= gridpack !True = setting up the grid pack
  -1.0	= time_of_flight ! threshold (in mm) below which the invariant livetime is not written (-1 means not written)
  average	= event_norm ! average/sum. Normalization of the weight in the LHEF
# To see MLM/CKKW  merging options: type "update MLM" or "update CKKW"

#*********************************************************************
#
#*********************************************************************
# Phase-Space Optimization strategy (basic options)
#*********************************************************************
  1	= nhel ! using helicities importance sampling or not.
                             ! 0: sum over helicity, 1: importance sampling
  2	= sde_strategy ! default integration strategy (hep-ph/2021.00773)
                             ! 1 is old strategy (using amp square)
			     ! 2 is new strategy (using only the denominator)
# To see advanced option for Phase-Space optimization: type "update psoptim"			     
#*********************************************************************
# Generation bias, check the wiki page below for more information:   *
#  'cp3.irmp.ucl.ac.be/projects/madgraph/wiki/LOEventGenerationBias' *
#*********************************************************************
  None	= bias_module ! Bias type of bias, [None, ptj_bias, -custom_folder-]
  {}	= bias_parameters ! Specifies the parameters of the module.
#
#*******************************                                                 
# Parton level cuts definition *
#*******************************                                     
#                                                                    
#
#*********************************************************************
# BW cutoff (M+/-bwcutoff*Gamma) ! Define on/off-shell for "$" and decay  
#*********************************************************************
  15.0	= bwcutoff ! (M+/-bwcutoff*Gamma)
#*********************************************************************
# Standard Cuts                                                      *
#*********************************************************************
# Minimum and maximum pt's (for max, -1 means no cut)                *
#*********************************************************************
  {}	= pt_min_pdg ! pt cut for other particles (use pdg code). Applied on particle and anti-particle
  {}	= pt_max_pdg ! pt cut for other particles (syntax e.g. {6: 100, 25: 50}) 
#
# For display option for energy cut in the partonic center of mass frame type 'update ecut'
#
#*********************************************************************
# Maximum and minimum absolute rapidity (for max, -1 means no cut)   *
#*********************************************************************
  {}	= eta_min_pdg ! rap cut for other particles (use pdg code). Applied on particle and anti-particle
  {}	= eta_max_pdg ! rap cut for other particles (syntax e.g. {6: 2.5, 23: 5})
#*********************************************************************
# Minimum and maximum DeltaR distance                                *
#*********************************************************************
#*********************************************************************
# Minimum and maximum invariant mass for pairs                       *
#*********************************************************************
  {}	= mxx_min_pdg ! min invariant mass of a pair of particles X/X~ (e.g. {6:250})
  {'default': False}	= mxx_only_part_antipart ! if True the invariant mass is applied only 
                       ! to pairs of particle/antiparticle and not to pairs of the same pdg codes.  
#*********************************************************************
# Inclusive cuts                                                     *
#*********************************************************************
  0.0	= ptheavy ! minimum pt for at least one heavy final state
#*********************************************************************
# maximal pdg code for quark to be considered as a light jet         *
# (otherwise b cuts are applied)                                     *
#*********************************************************************
  5	= maxjetflavor ! Maximum jet pdg code
#*********************************************************************
#
#*********************************************************************
# Store info for systematics studies                                 *
# WARNING: Do not use for interference type of computation           *
#*********************************************************************
  True	= use_syst ! Enable systematics studies
#
  None	= systematics_program ! none, systematics [python], SysCalc [depreceted, C++]
  ['--mur=0.5,1,2', '--muf=0.5,1,2', '--pdf=errorset']	= systematics_arguments ! see: https://cp3.irmp.ucl.ac.be/projects/madgraph/wiki/Systematics#Systematicspythonmodule
# Syscalc is deprecated but to see the associate options type'update syscalc'
]]>
</MGRunCard>
<slha>
######################################################################
## PARAM_CARD AUTOMATICALY GENERATED BY MG5 FOLLOWING UFO MODEL   ####
######################################################################
##                                                                  ##
##  Width set on Auto will be computed following the information    ##
##        present in the decay.py files of the model.               ##
##        See  arXiv:1402.1178 for more details.                    ##
##                                                                  ##
######################################################################

###################################
## INFORMATION FOR CKMBLOCK
###################################
Block ckmblock 
    1 2.277360e-01 # cabi 

###################################
## INFORMATION FOR MASS
###################################
Block mass 
    1 5.040000e-03 # MD 
    2 2.550000e-03 # MU 
    3 1.010000e-01 # MS 
    4 1.270000e+00 # MC 
    5 4.700000e+00 # MB 
    6 1.720000e+02 # MT 
   11 5.110000e-04 # Me 
   13 1.056600e-01 # MMU 
   15 1.777000e+00 # MTA 
   23 9.118760e+01 # MZ 
   25 1.250000e+02 # MH 
## Dependent parameters, given by model restrictions.
## Those values should be edited following the 
## analytical expression. MG5 ignores those values 
## but they are important for interfacing the output of MG5
## to external program such as Pythia.
  12 0.000000e+00 # ve : 0.0 
  14 0.000000e+00 # vm : 0.0 
  16 0.000000e+00 # vt : 0.0 
  21 0.000000e+00 # g : 0.0 
  22 0.000000e+00 # a : 0.0 
  24 7.982436e+01 # w+ : cmath.sqrt(MZ__exp__2/2. + cmath.sqrt(MZ__exp__4/4. - (aEW*cmath.pi*MZ__exp__2)/(Gf*sqrt__2))) 

###################################
## INFORMATION FOR SMINPUTS
###################################
Block sminputs 
    1 1.279000e+02 # aEWM1 
    2 1.166370e-05 # Gf 
    3 1.184000e-01 # aS (Note that Parameter not used if you use a PDF set) 

###################################
## INFORMATION FOR YUKAWA
###################################
Block yukawa 
    1 5.040000e-03 # ymdo 
    2 2.550000e-03 # ymup 
    3 1.010000e-01 # yms 
    4 1.270000e+00 # ymc 
    5 4.700000e+00 # ymb 
    6 1.720000e+02 # ymt 
   11 5.110000e-04 # yme 
   13 1.056600e-01 # ymm 
   15 1.777000e+00 # ymtau 

###################################
## INFORMATION FOR DECAY
###################################
DECAY   6 1.508336e+00 # WT 
DECAY  23 2.495200e+00 # WZ 
DECAY  24 2.085000e+00 # WW 
DECAY  25 4.070000e-03 # WH 
## Dependent parameters, given by model restrictions.
## Those values should be edited following the 
## analytical expression. MG5 ignores those values 
## but they are important for interfacing the output of MG5
## to external program such as Pythia.
DECAY  1 0.000000e+00 # d : 0.0 
DECAY  2 0.000000e+00 # u : 0.0 
DECAY  3 0.000000e+00 # s : 0.0 
DECAY  4 0.000000e+00 # c : 0.0 
DECAY  5 0.000000e+00 # b : 0.0 
DECAY  11 0.000000e+00 # e- : 0.0 
DECAY  12 0.000000e+00 # ve : 0.0 
DECAY  13 0.000000e+00 # mu- : 0.0 
DECAY  14 0.000000e+00 # vm : 0.0 
DECAY  15 0.000000e+00 # ta- : 0.0 
DECAY  16 0.000000e+00 # vt : 0.0 
DECAY  21 0.000000e+00 # g : 0.0 
DECAY  22 0.000000e+00 # a : 0.0
</slha>
<MGGenerationInfo>
#  Number of Events        :       1000
#  Integrated weight (pb)  :       15.057
</MGGenerationInfo>
<slha_original>
######################################################################
## PARAM_CARD AUTOMATICALY GENERATED BY MG5 FOLLOWING UFO MODEL   ####
######################################################################
##                                                                  ##
##  Width set on Auto will be computed following the information    ##
##        present in the decay.py files of the model.               ##
##        See  arXiv:1402.1178 for more details.                    ##
##                                                                  ##
######################################################################

###################################
## INFORMATION FOR MASS
###################################
Block mass 
    6 1.730000e+02 # MT 
   15 1.777000e+00 # MTA 
   23 9.118800e+01 # MZ 
   25 1.250000e+02 # MH 
## Dependent parameters, given by model restrictions.
## Those values should be edited following the 
## analytical expression. MG5 ignores those values 
## but they are important for interfacing the output of MG5
## to external program such as Pythia.
  1 0.000000e+00 # d : 0.0 
  2 0.000000e+00 # u : 0.0 
  3 0.000000e+00 # s : 0.0 
  4 0.000000e+00 # c : 0.0 
  5 0.000000e+00 # b : 0.0 
  11 0.000000e+00 # e- : 0.0 
  12 0.000000e+00 # ve : 0.0 
  13 0.000000e+00 # mu- : 0.0 
  14 0.000000e+00 # vm : 0.0 
  16 0.000000e+00 # vt : 0.0 
  21 0.000000e+00 # g : 0.0 
  22 0.000000e+00 # a : 0.0 
  24 8.041900e+01 # w+ : cmath.sqrt(MZ__exp__2/2. + cmath.sqrt(MZ__exp__4/4. - (aEW*cmath.pi*MZ__exp__2)/(Gf*sqrt__2))) 

###################################
## INFORMATION FOR SMINPUTS
###################################
Block sminputs 
    1 1.325070e+02 # aEWM1 
    2 1.166390e-05 # Gf 
    3 1.180000e-01 # aS (Note that Parameter not used if you use a PDF set) 

###################################
## INFORMATION FOR YUKAWA
###################################
Block yukawa 
    6 1.730000e+02 # ymt 
   15 1.777000e+00 # ymtau 

###################################
## INFORMATION FOR DECAY
###################################
DECAY   6 1.491500e+00 # WT 
DECAY  23 2.441404e+00 # WZ 
DECAY  24 2.047600e+00 # WW 
DECAY  25 6.382339e-03 # WH 
## Dependent parameters, given by model restrictions.
## Those values should be edited following the 
## analytical expression. MG5 ignores those values 
## but they are important for interfacing the output of MG5
## to external program such as Pythia.
DECAY  1 0.000000e+00 # d : 0.0 
DECAY  2 0.000000e+00 # u : 0.0 
DECAY  3 0.000000e+00 # s : 0.0 
DECAY  4 0.000000e+00 # c : 0.0 
DECAY  5 0.000000e+00 # b : 0.0 
DECAY  11 0.000000e+00 # e- : 0.0 
DECAY  12 0.000000e+00 # ve : 0.0 
DECAY  13 0.000000e+00 # mu- : 0.0 
DECAY  14 0.000000e+00 # vm : 0.0 
DECAY  15 0.000000e+00 # ta- : 0.0 
DECAY  16 0.000000e+00 # vt : 0.0 
DECAY  21 0.000000e+00 # g : 0.0 
DECAY  22 0.000000e+00 # a : 0.0 
#===========================================================
# QUANTUM NUMBERS OF NEW STATE(S) (NON SM PDG CODE)
#===========================================================

Block QNUMBERS 82  # gh 
        1 0  # 3 times electric charge
        2 1  # number of spin states (2S+1)
        3 8  # colour rep (1: singlet, 3: triplet, 8: octet)
        4 1  # Particle/Antiparticle distinction (0=own anti)
</slha_original>
<madspin>
set seed 558345735
import /afs/cern.ch/user/b/ballmond/public/genproductions/bin/MadGraph5_aMCatNLO/HToTauTauGamma_NLO_5f/HToTauTauGamma_NLO_5f_gridpack/work/unweighted_events.lhe.gz
import model DipoleMomentMid_UFO --bypass_check
set ms_dir ./madspingrid
set Nevents_for_max_weight 5 
set max_weight_ps_point 400 
set max_running_process 1
set spinmode=none
define l+=ta+
define l-=ta-
decay h > l+ l- a
launch
</madspin>
</header>
<init>
2212 2212 6.800000e+03 6.800000e+03 0 0 325300 325300 -4 1
   +1.3698540e+00 +1.5575414e-03 +1.3698540e+00 0
<generator name='MadGraph5_aMC@NLO' version='2.9.9'>please cite 1405.0301 </generator>
</init>
<event>
 6      0 +1.3698540e+00 1.25000000e+02 7.54677100e-03 1.12640300e-01
       21 -1    0    0  502  501 +0.0000000000e+00 +0.0000000000e+00 +3.8122521958e+02 3.8122521958e+02 0.0000000000e+00 0.0000e+00 1.0000e+00
       21 -1    0    0  501  502 -0.0000000000e+00 -0.0000000000e+00 -1.0246567644e+01 1.0246567644e+01 0.0000000000e+00 0.0000e+00 1.0000e+00
       25  2    1    2    0    0 +0.0000000000e+00 +0.0000000000e+00 +3.7097865194e+02 3.9147178723e+02 1.2500000000e+02 0.0000e+00 0.0000e+00
      -15  1    3    3    0    0 +9.9619334907e-03 -2.4515189199e+01 +3.2048972043e+02 3.2143088406e+02 1.7770000000e+00 0.0000e+00 -1.0000e+00
       15  1    3    3    0    0 -9.9701697254e+00 -8.5898751607e+00 +1.9634295672e+01 2.3703449857e+01 1.7770000000e+00 0.0000e+00 -1.0000e+00
       22  1    3    3    0    0 +9.9602077919e+00 +3.3105064360e+01 +3.0854635816e+01 4.6337453283e+01 0.0000000000e+00 0.0000e+00 -1.0000e+00
<mgrwt>
<rscale>  2 0.12500000E+03</rscale>
<asrwt>0</asrwt>
<pdfrwt beam="1">  1       21 0.56062523E-01 0.12500000E+03</pdfrwt>
<pdfrwt beam="2">  1       21 0.15068484E-02 0.12500000E+03</pdfrwt>
<totfact> 0.54451089E+06</totfact>
</mgrwt>
</event>
<event>
 6      0 +1.3698540e+00 1.25000000e+02 7.54677100e-03 1.12640300e-01
       21 -1    0    0  502  501 +0.0000000000e+00 +0.0000000000e+00 +5.5646656211e+01 5.5646656211e+01 0.0000000000e+00 0.0000e+00 -1.0000e+00
       21 -1    0    0  501  502 -0.0000000000e+00 -0.0000000000e+00 -7.0197389493e+01 7.0197389493e+01 0.0000000000e+00 0.0000e+00 -1.0000e+00
       25  2    1    2    0    0 +0.0000000000e+00 +0.0000000000e+00 -1.4550733282e+01 1.2584404570e+02 1.2500000000e+02 0.0000e+00 0.0000e+00
      -15  1    3    3    0    0 +1.6637077832e+01 -2.2695437636e+01 -6.0583836521e+00 2.8839850723e+01 1.7770000000e+00 0.0000e+00 -1.0000e+00
       15  1    3    3    0    0 +2.8806033185e+01 -6.3418728431e+00 +2.0320016416e+01 3.5861786001e+01 1.7770000000e+00 0.0000e+00 -1.0000e+00
       22  1    3    3    0    0 -4.5443111017e+01 +2.9037310479e+01 -2.8812366045e+01 6.1142408980e+01 0.0000000000e+00 0.0000e+00 -1.0000e+00
<mgrwt>
<rscale>  2 0.12500000E+03</rscale>
<asrwt>0</asrwt>
<pdfrwt beam="1">  1       21 0.81833318E-02 0.12500000E+03</pdfrwt>
<pdfrwt beam="2">  1       21 0.10323146E-01 0.12500000E+03</pdfrwt>
<totfact> 0.88840066E+06</totfact>
</mgrwt>
</event>
<event>
 6      0 +1.3698540e+00 1.25000000e+02 7.54677100e-03 1.12640300e-01
       21 -1    0    0  502  501 +0.0000000000e+00 +0.0000000000e+00 +4.7600521663e+01 4.7600521663e+01 0.0000000000e+00 0.0000e+00 -1.0000e+00
       21 -1    0    0  501  502 -0.0000000000e+00 -0.0000000000e+00 -8.2063176274e+01 8.2063176274e+01 0.0000000000e+00 0.0000e+00 -1.0000e+00
       25  2    1    2    0    0 +0.0000000000e+00 +0.0000000000e+00 -3.4462654611e+01 1.2966369794e+02 1.2500000000e+02 0.0000e+00 0.0000e+00
      -15  1    3    3    0    0 +3.7689100254e+01 -6.4409148018e+00 -2.6554714592e+01 4.6586095110e+01 1.7770000000e+00 0.0000e+00 -1.0000e+00
       15  1    3    3    0    0 +1.3932542643e+01 -1.0847700644e+01 -2.0587505885e+01 2.7180718926e+01 1.7770000000e+00 0.0000e+00 -1.0000e+00
       22  1    3    3    0    0 -5.1621642897e+01 +1.7288615446e+01 +1.2679565867e+01 5.5896883902e+01 0.0000000000e+00 0.0000e+00 -1.0000e+00
<mgrwt>
<rscale>  2 0.12500000E+03</rscale>
<asrwt>0</asrwt>
<pdfrwt beam="1">  1       21 0.70000768E-02 0.12500000E+03</pdfrwt>
<pdfrwt beam="2">  1       21 0.12068114E-01 0.12500000E+03</pdfrwt>
<totfact> 0.88159227E+06</totfact>
</mgrwt>
</event>
<event>
 6      0 +1.3698540e+00 1.25000000e+02 7.54677100e-03 1.12640300e-01
       21 -1    0    0  502  501 +0.0000000000e+00 +0.0000000000e+00 +1.2910752982e+01 1.2910752982e+01 0.0000000000e+00 0.0000e+00 -1.0000e+00
       21 -1    0    0  501  502 -0.0000000000e+00 -0.0000000000e+00 -3.0255787602e+02 3.0255787602e+02 0.0000000000e+00 0.0000e+00 -1.0000e+00
       25  2    1    2    0    0 +0.0000000000e+00 +0.0000000000e+00 -2.8964712304e+02 3.1546862900e+02 1.2500000000e+02 0.0000e+00 0.0000e+00
      -15  1    3    3    0    0 -1.5944950329e+01 -1.8855222176e+01 -8.7577332182e+01 9.1009382403e+01 1.7770000000e+00 0.0000e+00 -1.0000e+00
       15  1    3    3    0    0 +3.7139493844e+00 -4.8082733467e+00 -1.9729576156e+02 1.9739728512e+02 1.7770000000e+00 0.0000e+00 -1.0000e+00
       22  1    3    3    0    0 +1.2231000945e+01 +2.3663495523e+01 -4.7740293175e+00 2.7061961502e+01 0.0000000000e+00 0.0000e+00 -1.0000e+00
<mgrwt>
<rscale>  2 0.12500000E+03</rscale>
<asrwt>0</asrwt>
<pdfrwt beam="1">  1       21 0.18986400E-02 0.12500000E+03</pdfrwt>
<pdfrwt beam="2">  1       21 0.44493808E-01 0.12500000E+03</pdfrwt>
<totfact> 0.62205336E+06</totfact>
</mgrwt>
</event>
<event>
 6      0 +1.3698540e+00 1.25000000e+02 7.54677100e-03 1.12640300e-01
       21 -1    0    0  502  501 +0.0000000000e+00 +0.0000000000e+00 +4.5636952005e+00 4.5636952005e+00 0.0000000000e+00 0.0000e+00 1.0000e+00
       21 -1    0    0  501  502 -0.0000000000e+00 -0.0000000000e+00 -8.5594015998e+02 8.5594015998e+02 0.0000000000e+00 0.0000e+00 1.0000e+00
       25  2    1    2    0    0 +0.0000000000e+00 +0.0000000000e+00 -8.5137646478e+02 8.6050385518e+02 1.2500000000e+02 0.0000e+00 0.0000e+00
      -15  1    3    3    0    0 -6.8673020154e+00 -4.8634166819e+01 -1.5990309872e+02 1.6728598486e+02 1.7770000000e+00 0.0000e+00 -1.0000e+00
       15  1    3    3    0    0 +6.8673001601e+00 +4.8634158209e+01 -6.9147326612e+02 6.9321777000e+02 1.7770000000e+00 0.0000e+00 -1.0000e+00
       22  1    3    3    0    0 +1.8552731743e-06 +8.6096828996e-06 -9.9975625465e-05 1.0036281366e-04 0.0000000000e+00 0.0000e+00 -1.0000e+00
<mgrwt>
<rscale>  2 0.12500000E+03</rscale>
<asrwt>0</asrwt>
<pdfrwt beam="1">  1       21 0.67113139E-03 0.12500000E+03</pdfrwt>
<pdfrwt beam="2">  1       21 0.12587360E+00 0.12500000E+03</pdfrwt>
<totfact> 0.25870873E+06</totfact>
</mgrwt>
</event>
<event>
 6      0 +1.3698540e+00 1.25000000e+02 7.54677100e-03 1.12640300e-01
       21 -1    0    0  502  501 +0.0000000000e+00 +0.0000000000e+00 +1.5811880896e+02 1.5811880896e+02 0.0000000000e+00 0.0000e+00 -1.0000e+00
       21 -1    0    0  501  502 -0.0000000000e+00 -0.0000000000e+00 -2.4704524564e+01 2.4704524564e+01 0.0000000000e+00 0.0000e+00 -1.0000e+00
       25  2    1    2    0    0 +0.0000000000e+00 +0.0000000000e+00 +1.3341428440e+02 1.8282333353e+02 1.2500000000e+02 0.0000e+00 0.0000e+00
      -15  1    3    3    0    0 +3.0154185597e+01 -1.3032200678e+01 +9.4066350217e+01 9.9653144134e+01 1.7770000000e+00 0.0000e+00 -1.0000e+00
       15  1    3    3    0    0 -1.8024415994e+01 +1.1843834288e+01 +5.7425553133e+01 6.1367808044e+01 1.7770000000e+00 0.0000e+00 -1.0000e+00
       22  1    3    3    0    0 -1.2129769603e+01 +1.1883663906e+00 -1.8077618954e+01 2.1802381346e+01 0.0000000000e+00 0.0000e+00 -1.0000e+00
<mgrwt>
<rscale>  2 0.12500000E+03</rscale>
<asrwt>0</asrwt>
<pdfrwt beam="1">  1       21 0.23252766E-01 0.12500000E+03</pdfrwt>
<pdfrwt beam="2">  1       21 0.36330184E-02 0.12500000E+03</pdfrwt>
<totfact> 0.79376201E+06</totfact>
</mgrwt>
</event>
<event>
 6      0 +1.3698540e+00 1.25000000e+02 7.54677100e-03 1.12640300e-01
       21 -1    0    0  502  501 +0.0000000000e+00 +0.0000000000e+00 +2.0748289912e+01 2.0748289912e+01 0.0000000000e+00 0.0000e+00 1.0000e+00
       21 -1    0    0  501  502 -0.0000000000e+00 -0.0000000000e+00 -1.8826852799e+02 1.8826852799e+02 0.0000000000e+00 0.0000e+00 1.0000e+00
       25  2    1    2    0    0 +0.0000000000e+00 +0.0000000000e+00 -1.6752023808e+02 2.0901681790e+02 1.2500000000e+02 0.0000e+00 0.0000e+00
      -15  1    3    3    0    0 +1.3389958520e+00 -6.1772365929e+01 -6.8433253408e+01 9.2216516977e+01 1.7770000000e+00 0.0000e+00 1.0000e+00
       15  1    3    3    0    0 -1.3365467163e+00 +6.1776089455e+01 -9.9092764782e+01 1.1679300213e+02 1.7770000000e+00 0.0000e+00 1.0000e+00
       22  1    3    3    0    0 -2.4491356420e-03 -3.7235260139e-03 +5.7801032345e-03 7.2988015982e-03 0.0000000000e+00 0.0000e+00 -1.0000e+00
<mgrwt>
<rscale>  2 0.12500000E+03</rscale>
<asrwt>0</asrwt>
<pdfrwt beam="1">  1       21 0.30512189E-02 0.12500000E+03</pdfrwt>
<pdfrwt beam="2">  1       21 0.27686550E-01 0.12500000E+03</pdfrwt>
<totfact> 0.75523297E+06</totfact>
</mgrwt>
</event>
<event>
 6      0 +1.3698540e+00 1.25000000e+02 7.54677100e-03 1.12640300e-01
       21 -1    0    0  502  501 +0.0000000000e+00 +0.0000000000e+00 +4.1789204467e+01 4.1789204467e+01 0.0000000000e+00 0.0000e+00 1.0000e+00
       21 -1    0    0  501  502 -0.0000000000e+00 -0.0000000000e+00 -9.3475098410e+01 9.3475098410e+01 0.0000000000e+00 0.0000e+00 1.0000e+00
       25  2    1    2    0    0 +0.0000000000e+00 +0.0000000000e+00 -5.1685893944e+01 1.3526430288e+02 1.2500000000e+02 0.0000e+00 0.0000e+00
      -15  1    3    3    0    0 +6.2147153907e+01 -5.8655495743e+00 -2.5890679989e+01 6.7602947050e+01 1.7770000000e+00 0.0000e+00 1.0000e+00
       15  1    3    3    0    0 -6.1000515289e+01 +6.1535922631e+00 -2.5596392784e+01 6.6462490292e+01 1.7770000000e+00 0.0000e+00 1.0000e+00
       22  1    3    3    0    0 -1.1466386185e+00 -2.8804268881e-01 -1.9882116982e-01 1.1988655344e+00 0.0000000000e+00 0.0000e+00 1.0000e+00
<mgrwt>
<rscale>  2 0.12500000E+03</rscale>
<asrwt>0</asrwt>
<pdfrwt beam="1">  1       21 0.61454713E-02 0.12500000E+03</pdfrwt>
<pdfrwt beam="2">  1       21 0.13746338E-01 0.12500000E+03</pdfrwt>
<totfact> 0.87159701E+06</totfact>
</mgrwt>
</event>
<event>
 6      0 +1.3698540e+00 1.25000000e+02 7.54677100e-03 1.12640300e-01
       21 -1    0    0  502  501 +0.0000000000e+00 +0.0000000000e+00 +1.4724280401e+01 1.4724280401e+01 0.0000000000e+00 0.0000e+00 1.0000e+00
       21 -1    0    0  501  502 -0.0000000000e+00 -0.0000000000e+00 -2.6529310049e+02 2.6529310049e+02 0.0000000000e+00 0.0000e+00 1.0000e+00
       25  2    1    2    0    0 +0.0000000000e+00 +0.0000000000e+00 -2.5056882009e+02 2.8001738089e+02 1.2500000000e+02 0.0000e+00 0.0000e+00
      -15  1    3    3    0    0 -4.2929788671e+01 -1.5176497561e+01 -1.1156924172e+02 1.2051616597e+02 1.7770000000e+00 0.0000e+00 -1.0000e+00
       15  1    3    3    0    0 +4.8878468252e+01 -1.2029931119e+01 -8.8209476330e+01 1.0157703158e+02 1.7770000000e+00 0.0000e+00 -1.0000e+00
       22  1    3    3    0    0 -5.9486795811e+00 +2.7206428679e+01 -5.0790102048e+01 5.7924183346e+01 0.0000000000e+00 0.0000e+00 -1.0000e+00
<mgrwt>
<rscale>  2 0.12500000E+03</rscale>
<asrwt>0</asrwt>
<pdfrwt beam="1">  1       21 0.21653354E-02 0.12500000E+03</pdfrwt>
<pdfrwt beam="2">  1       21 0.39013690E-01 0.12500000E+03</pdfrwt>
<totfact> 0.66289318E+06</totfact>
</mgrwt>
</event>
<event>
 6      0 +1.3698540e+00 1.25000000e+02 7.54677100e-03 1.12640300e-01
       21 -1    0    0  502  501 +0.0000000000e+00 +0.0000000000e+00 +4.7636625729e+01 4.7636625729e+01 0.0000000000e+00 0.0000e+00 -1.0000e+00
       21 -1    0    0  501  502 -0.0000000000e+00 -0.0000000000e+00 -8.2000980133e+01 8.2000980133e+01 0.0000000000e+00 0.0000e+00 -1.0000e+00
       25  2    1    2    0    0 +0.0000000000e+00 +0.0000000000e+00 -3.4364354404e+01 1.2963760586e+02 1.2500000000e+02 0.0000e+00 0.0000e+00
      -15  1    3    3    0    0 -1.6699184098e+01 +4.2435495133e+01 -3.2198025936e+01 5.5852525456e+01 1.7770000000e+00 0.0000e+00 -1.0000e+00
       15  1    3    3    0    0 +1.7871278215e+01 -1.1442141183e+01 +2.4798524519e+01 3.2686843335e+01 1.7770000000e+00 0.0000e+00 -1.0000e+00
       22  1    3    3    0    0 -1.1720941166e+00 -3.0993353950e+01 -2.6964852988e+01 4.1098237071e+01 0.0000000000e+00 0.0000e+00 -1.0000e+00
<mgrwt>
<rscale>  2 0.12500000E+03</rscale>
<asrwt>0</asrwt>
<pdfrwt beam="1">  1       21 0.70053862E-02 0.12500000E+03</pdfrwt>
<pdfrwt beam="2">  1       21 0.12058968E-01 0.12500000E+03</pdfrwt>
<totfact> 0.88163969E+06</totfact>
</mgrwt>
</event>
<event>
 6      0 +1.3698540e+00 1.25000000e+02 7.54677100e-03 1.12640300e-01
       21 -1    0    0  502  501 +0.0000000000e+00 +0.0000000000e+00 +3.1489682095e+01 3.1489682095e+01 0.0000000000e+00 0.0000e+00 1.0000e+00
       21 -1    0    0  501  502 -0.0000000000e+00 -0.0000000000e+00 -1.2404856893e+02 1.2404856893e+02 0.0000000000e+00 0.0000e+00 1.0000e+00
       25  2    1    2    0    0 +0.0000000000e+00 +0.0000000000e+00 -9.2558886834e+01 1.5553825103e+02 1.2500000000e+02 0.0000e+00 0.0000e+00
      -15  1    3    3    0    0 -3.1177009164e+01 +1.1671299190e+01 -1.1206154983e+02 1.1691524197e+02 1.7770000000e+00 0.0000e+00 1.0000e+00
       15  1    3    3    0    0 +3.1177009386e+01 -1.1671299587e+01 +1.9502663654e+01 3.8623008257e+01 1.7770000000e+00 0.0000e+00 1.0000e+00
       22  1    3    3    0    0 -2.2124807842e-07 +3.9715277125e-07 -6.5186489447e-07 7.9473824405e-07 0.0000000000e+00 0.0000e+00 1.0000e+00
<mgrwt>
<rscale>  2 0.12500000E+03</rscale>
<asrwt>0</asrwt>
<pdfrwt beam="1">  1       21 0.46308356E-02 0.12500000E+03</pdfrwt>
<pdfrwt beam="2">  1       21 0.18242437E-01 0.12500000E+03</pdfrwt>
<totfact> 0.83707014E+06</totfact>
</mgrwt>
</event>
<event>
 6      0 +1.3698540e+00 1.25000000e+02 7.54677100e-03 1.12640300e-01
       21 -1    0    0  502  501 +0.0000000000e+00 +0.0000000000e+00 +3.7867036713e+02 3.7867036713e+02 0.0000000000e+00 0.0000e+00 -1.0000e+00
       21 -1    0    0  501  502 -0.0000000000e+00 -0.0000000000e+00 -1.0315700248e+01 1.0315700248e+01 0.0000000000e+00 0.0000e+00 -1.0000e+00
       25  2    1    2    0    0 +0.0000000000e+00 +0.0000000000e+00 +3.6835466688e+02 3.8898606737e+02 1.2500000000e+02 0.0000e+00 0.0000e+00
      -15  1    3    3    0    0 -2.4601112187e+01 +4.0692944571e+01 +3.0995283365e+02 3.1358419488e+02 1.7770000000e+00 0.0000e+00 1.0000e+00
       15  1    3    3    0    0 +2.4608477049e+01 -4.0622535584e+01 +5.8435466822e+01 7.5323496013e+01 1.7770000000e+00 0.0000e+00 1.0000e+00
       22  1    3    3    0    0 -7.3648617229e-03 -7.0408987358e-02 -3.3633538965e-02 7.8376537523e-02 0.0000000000e+00 0.0000e+00 -1.0000e+00
<mgrwt>
<rscale>  2 0.12500000E+03</rscale>
<asrwt>0</asrwt>
<pdfrwt beam="1">  1       21 0.55686809E-01 0.12500000E+03</pdfrwt>
<pdfrwt beam="2">  1       21 0.15170150E-02 0.12500000E+03</pdfrwt>
<totfact> 0.54685684E+06</totfact>
</mgrwt>
</event>
<event>
 6      0 +1.3698540e+00 1.25000000e+02 7.54677100e-03 1.12640300e-01
       21 -1    0    0  502  501 +0.0000000000e+00 +0.0000000000e+00 +8.0651851250e+02 8.0651851250e+02 0.0000000000e+00 0.0000e+00 1.0000e+00
       21 -1    0    0  501  502 -0.0000000000e+00 -0.0000000000e+00 -4.8433482176e+00 4.8433482176e+00 0.0000000000e+00 0.0000e+00 1.0000e+00
       25  2    1    2    0    0 +0.0000000000e+00 +0.0000000000e+00 +8.0167516428e+02 8.1136186072e+02 1.2500000000e+02 0.0000e+00 0.0000e+00
      -15  1    3    3    0    0 +3.6431741017e+00 +5.6168572887e+01 +3.1776005350e+02 3.2271162147e+02 1.7770000000e+00 0.0000e+00 1.0000e+00
       15  1    3    3    0    0 -7.3449663736e+00 -6.0489789611e+01 +4.6217185752e+02 4.6617480283e+02 1.7770000000e+00 0.0000e+00 1.0000e+00
       22  1    3    3    0    0 +3.7017922719e+00 +4.3212167242e+00 +2.1743253050e+01 2.2475436218e+01 0.0000000000e+00 0.0000e+00 1.0000e+00
<mgrwt>
<rscale>  2 0.12500000E+03</rscale>
<asrwt>0</asrwt>
<pdfrwt beam="1">  1       21 0.11860557E+00 0.12500000E+03</pdfrwt>
<pdfrwt beam="2">  1       21 0.71225765E-03 0.12500000E+03</pdfrwt>
<totfact> 0.27812710E+06</totfact>
</mgrwt>
</event>
<event>
 6      0 +1.3698540e+00 1.25000000e+02 7.54677100e-03 1.12640300e-01
       21 -1    0    0  502  501 +0.0000000000e+00 +0.0000000000e+00 +2.6162653041e+02 2.6162653041e+02 0.0000000000e+00 0.0000e+00 -1.0000e+00
       21 -1    0    0  501  502 -0.0000000000e+00 -0.0000000000e+00 -1.4930634114e+01 1.4930634114e+01 0.0000000000e+00 0.0000e+00 -1.0000e+00
       25  2    1    2    0    0 +0.0000000000e+00 +0.0000000000e+00 +2.4669589629e+02 2.7655716452e+02 1.2500000000e+02 0.0000e+00 0.0000e+00
      -15  1    3    3    0    0 -3.8365124346e+01 +2.4570593976e+01 +2.1792854788e+02 2.2264682024e+02 1.7770000000e+00 0.0000e+00 1.0000e+00
       15  1    3    3    0    0 +3.8365127553e+01 -2.4570598314e+01 +2.8767152833e+01 5.3910148624e+01 1.7770000000e+00 0.0000e+00 1.0000e+00
       22  1    3    3    0    0 -3.2072658885e-06 +4.3375760148e-06 +1.9556967955e-04 1.9564406631e-04 0.0000000000e+00 0.0000e+00 1.0000e+00
<mgrwt>
<rscale>  2 0.12500000E+03</rscale>
<asrwt>0</asrwt>
<pdfrwt beam="1">  1       21 0.38474487E-01 0.12500000E+03</pdfrwt>
<pdfrwt beam="2">  1       21 0.21956817E-02 0.12500000E+03</pdfrwt>
<totfact> 0.66703764E+06</totfact>
</mgrwt>
</event>
<event>
 6      0 +1.3698540e+00 1.25000000e+02 7.54677100e-03 1.12640300e-01
       21 -1    0    0  502  501 +0.0000000000e+00 +0.0000000000e+00 +1.8622613484e+01 1.8622613484e+01 0.0000000000e+00 0.0000e+00 1.0000e+00
       21 -1    0    0  501  502 -0.0000000000e+00 -0.0000000000e+00 -2.0975842104e+02 2.0975842104e+02 0.0000000000e+00 0.0000e+00 1.0000e+00
       25  2    1    2    0    0 +0.0000000000e+00 +0.0000000000e+00 -1.9113580755e+02 2.2838103452e+02 1.2500000000e+02 0.0000e+00 0.0000e+00
      -15  1    3    3    0    0 +3.4533276788e+01 +2.8778925513e+01 -1.7483565988e+02 1.8053099305e+02 1.7770000000e+00 0.0000e+00 1.0000e+00
       15  1    3    3    0    0 -3.4533277140e+01 -2.8778925810e+01 -1.6300145787e+01 4.7850039524e+01 1.7770000000e+00 0.0000e+00 1.0000e+00
       22  1    3    3    0    0 +3.5136116923e-07 +2.9699911718e-07 -1.8843684954e-06 1.9397184778e-06 0.0000000000e+00 0.0000e+00 -1.0000e+00
<mgrwt>
<rscale>  2 0.12500000E+03</rscale>
<asrwt>0</asrwt>
<pdfrwt beam="1">  1       21 0.27386197E-02 0.12500000E+03</pdfrwt>
<pdfrwt beam="2">  1       21 0.30846826E-01 0.12500000E+03</pdfrwt>
<totfact> 0.72855052E+06</totfact>
</mgrwt>
</event>
<event>
 6      0 +1.3698540e+00 1.25000000e+02 7.54677100e-03 1.12640300e-01
       21 -1    0    0  502  501 +0.0000000000e+00 +0.0000000000e+00 +4.5052774171e+01 4.5052774171e+01 0.0000000000e+00 0.0000e+00 1.0000e+00
       21 -1    0    0  501  502 -0.0000000000e+00 -0.0000000000e+00 -8.6703872777e+01 8.6703872777e+01 0.0000000000e+00 0.0000e+00 1.0000e+00
       25  2    1    2    0    0 +0.0000000000e+00 +0.0000000000e+00 -4.1651098606e+01 1.3175664695e+02 1.2500000000e+02 0.0000e+00 0.0000e+00
      -15  1    3    3    0    0 -3.9297533170e+01 -3.2501566055e+01 -5.8864783010e+01 7.7902941646e+01 1.7770000000e+00 0.0000e+00 -1.0000e+00
       15  1    3    3    0    0 +3.9294036412e+01 +3.2497499301e+01 +1.7208042871e+01 5.3845921172e+01 1.7770000000e+00 0.0000e+00 -1.0000e+00
       22  1    3    3    0    0 +3.4967572689e-03 +4.0667541307e-03 +5.6415329539e-03 7.7841309483e-03 0.0000000000e+00 0.0000e+00 -1.0000e+00
<mgrwt>
<rscale>  2 0.12500000E+03</rscale>
<asrwt>0</asrwt>
<pdfrwt beam="1">  1       21 0.66254080E-02 0.12500000E+03</pdfrwt>
<pdfrwt beam="2">  1       21 0.12750569E-01 0.12500000E+03</pdfrwt>
<totfact> 0.87779818E+06</totfact>
</mgrwt>
</event>
<event>
 6      0 +1.3698540e+00 1.25000000e+02 7.54677100e-03 1.12640300e-01
       21 -1    0    0  502  501 +0.0000000000e+00 +0.0000000000e+00 +2.5925490904e+01 2.5925490904e+01 0.0000000000e+00 0.0000e+00 1.0000e+00
       21 -1    0    0  501  502 -0.0000000000e+00 -0.0000000000e+00 -1.5067217105e+02 1.5067217105e+02 0.0000000000e+00 0.0000e+00 1.0000e+00
       25  2    1    2    0    0 +0.0000000000e+00 +0.0000000000e+00 -1.2474668015e+02 1.7659766195e+02 1.2500000000e+02 0.0000e+00 0.0000e+00
      -15  1    3    3    0    0 +2.6046209489e+00 +3.7531809745e+01 -4.6976364452e+01 6.0210940361e+01 1.7770000000e+00 0.0000e+00 -1.0000e+00
       15  1    3    3    0    0 +2.0188528218e+00 -4.5137585693e+00 -8.2540012495e+01 8.2707080560e+01 1.7770000000e+00 0.0000e+00 -1.0000e+00
       22  1    3    3    0    0 -4.6234737707e+00 -3.3018051176e+01 +4.7696967884e+00 3.3679641041e+01 0.0000000000e+00 0.0000e+00 -1.0000e+00
<mgrwt>
<rscale>  2 0.12500000E+03</rscale>
<asrwt>0</asrwt>
<pdfrwt beam="1">  1       21 0.38125723E-02 0.12500000E+03</pdfrwt>
<pdfrwt beam="2">  1       21 0.22157672E-01 0.12500000E+03</pdfrwt>
<totfact> 0.80330119E+06</totfact>
</mgrwt>
</event>
<event>
 6      0 +1.3698540e+00 1.25000000e+02 7.54677100e-03 1.12640300e-01
       21 -1    0    0  502  501 +0.0000000000e+00 +0.0000000000e+00 +4.5992021837e+02 4.5992021837e+02 0.0000000000e+00 0.0000e+00 -1.0000e+00
       21 -1    0    0  501  502 -0.0000000000e+00 -0.0000000000e+00 -8.4933208935e+00 8.4933208935e+00 0.0000000000e+00 0.0000e+00 -1.0000e+00
       25  2    1    2    0    0 +0.0000000000e+00 +0.0000000000e+00 +4.5142689747e+02 4.6841353926e+02 1.2500000000e+02 0.0000e+00 0.0000e+00
      -15  1    3    3    0    0 -1.3672009625e+01 -1.8827347021e+01 +4.8664886052e+01 5.3970563333e+01 1.7770000000e+00 0.0000e+00 -1.0000e+00
       15  1    3    3    0    0 -2.9576138734e+01 -5.3259060529e-01 +4.7159647621e+01 5.5697591761e+01 1.7770000000e+00 0.0000e+00 -1.0000e+00
       22  1    3    3    0    0 +4.3248148359e+01 +1.9359937626e+01 +3.5560236376e+02 3.5874538413e+02 0.0000000000e+00 0.0000e+00 -1.0000e+00
<mgrwt>
<rscale>  2 0.12500000E+03</rscale>
<asrwt>0</asrwt>
<pdfrwt beam="1">  1       21 0.67635310E-01 0.12500000E+03</pdfrwt>
<pdfrwt beam="2">  1       21 0.12490181E-02 0.12500000E+03</pdfrwt>
<totfact> 0.47771359E+06</totfact>
</mgrwt>
</event>
<event>
 6      0 +1.3698540e+00 1.25000000e+02 7.54677100e-03 1.12640300e-01
       21 -1    0    0  502  501 +0.0000000000e+00 +0.0000000000e+00 +2.4700466437e+01 2.4700466437e+01 0.0000000000e+00 0.0000e+00 1.0000e+00
       21 -1    0    0  501  502 -0.0000000000e+00 -0.0000000000e+00 -1.5814478686e+02 1.5814478686e+02 0.0000000000e+00 0.0000e+00 1.0000e+00
       25  2    1    2    0    0 +0.0000000000e+00 +0.0000000000e+00 -1.3344432043e+02 1.8284525330e+02 1.2500000000e+02 0.0000e+00 0.0000e+00
      -15  1    3    3    0    0 +5.4413212856e+01 +5.6339203483e+00 -2.2582763092e+01 5.9208763791e+01 1.7770000000e+00 0.0000e+00 1.0000e+00
       15  1    3    3    0    0 -5.4413213100e+01 -5.6339204320e+00 -1.1086155745e+02 1.2363648923e+02 1.7770000000e+00 0.0000e+00 1.0000e+00
       22  1    3    3    0    0 +2.4382821978e-07 +8.3769717372e-08 +1.1339135205e-07 2.8165078559e-07 0.0000000000e+00 0.0000e+00 -1.0000e+00
<mgrwt>
<rscale>  2 0.12500000E+03</rscale>
<asrwt>0</asrwt>
<pdfrwt beam="1">  1       21 0.36324215E-02 0.12500000E+03</pdfrwt>
<pdfrwt beam="2">  1       21 0.23256586E-01 0.12500000E+03</pdfrwt>
<totfact> 0.79372875E+06</totfact>
</mgrwt>
</event>
<event>
 6      0 +1.3698540e+00 1.25000000e+02 7.54677100e-03 1.12640300e-01
       21 -1    0    0  502  501 +0.0000000000e+00 +0.0000000000e+00 +2.7515101738e+02 2.7515101738e+02 0.0000000000e+00 0.0000e+00 -1.0000e+00
       21 -1    0    0  501  502 -0.0000000000e+00 -0.0000000000e+00 -1.4196749251e+01 1.4196749251e+01 0.0000000000e+00 0.0000e+00 -1.0000e+00
       25  2    1    2    0    0 +0.0000000000e+00 +0.0000000000e+00 +2.6095426813e+02 2.8934776663e+02 1.2500000000e+02 0.0000e+00 0.0000e+00
      -15  1    3    3    0    0 +5.1865131696e+01 +2.0078592720e+01 +1.1580418648e+02 1.2847921664e+02 1.7770000000e+00 0.0000e+00 -1.0000e+00
       15  1    3    3    0    0 -5.2556627682e+01 -1.3396886011e+01 +8.8436985057e+01 1.0375901755e+02 1.7770000000e+00 0.0000e+00 -1.0000e+00
       22  1    3    3    0    0 +6.9149598591e-01 -6.6817067096e+00 +5.6713096602e+01 5.7109532457e+01 0.0000000000e+00 0.0000e+00 -1.0000e+00
<mgrwt>
<rscale>  2 0.12500000E+03</rscale>
<asrwt>0</asrwt>
<pdfrwt beam="1">  1       21 0.40463381E-01 0.12500000E+03</pdfrwt>
<pdfrwt beam="2">  1       21 0.20877574E-02 0.12500000E+03</pdfrwt>
<totfact> 0.65186187E+06</totfact>
</mgrwt>
</event>
<event>
 6      0 +1.3698540e+00 1.25000000e+02 7.54677100e-03 1.12640300e-01
       21 -1    0    0  502  501 +0.0000000000e+00 +0.0000000000e+00 +6.7091931537e+01 6.7091931537e+01 0.0000000000e+00 0.0000e+00 -1.0000e+00
       21 -1    0    0  501  502 -0.0000000000e+00 -0.0000000000e+00 -5.8222351191e+01 5.8222351191e+01 0.0000000000e+00 0.0000e+00 -1.0000e+00
       25  2    1    2    0    0 +0.0000000000e+00 +0.0000000000e+00 +8.8695803463e+00 1.2531428273e+02 1.2500000000e+02 0.0000e+00 0.0000e+00
      -15  1    3    3    0    0 +9.5579168091e-01 +6.0202672431e+01 -1.2274952033e+01 6.1474445765e+01 1.7770000000e+00 0.0000e+00 1.0000e+00
       15  1    3    3    0    0 -9.5579082250e-01 -6.0202670455e+01 +2.1144536312e+01 6.3839832478e+01 1.7770000000e+00 0.0000e+00 1.0000e+00
       22  1    3    3    0    0 -8.5840423143e-07 -1.9766947404e-06 -3.9331519887e-06 4.4848483239e-06 0.0000000000e+00 0.0000e+00 1.0000e+00
<mgrwt>
<rscale>  2 0.12500000E+03</rscale>
<asrwt>0</asrwt>
<pdfrwt beam="1">  1       21 0.98664605E-02 0.12500000E+03</pdfrwt>
<pdfrwt beam="2">  1       21 0.85621105E-02 0.12500000E+03</pdfrwt>
<totfact> 0.88938552E+06</totfact>
</mgrwt>
</event>
<event>
 6      0 +1.3698540e+00 1.25000000e+02 7.54677100e-03 1.12640300e-01
       21 -1    0    0  502  501 +0.0000000000e+00 +0.0000000000e+00 +5.8124160284e+01 5.8124160284e+01 0.0000000000e+00 0.0000e+00 -1.0000e+00
       21 -1    0    0  501  502 -0.0000000000e+00 -0.0000000000e+00 -6.7205271971e+01 6.7205271971e+01 0.0000000000e+00 0.0000e+00 -1.0000e+00
       25  2    1    2    0    0 +0.0000000000e+00 +0.0000000000e+00 -9.0811116869e+00 1.2532943226e+02 1.2500000000e+02 0.0000e+00 0.0000e+00
      -15  1    3    3    0    0 +1.2475149650e+01 -3.4111120602e+01 -5.8729168809e+00 3.6835401303e+01 1.7770000000e+00 0.0000e+00 -1.0000e+00
       15  1    3    3    0    0 -1.3595562023e+01 +4.5750496885e+01 -3.1951642537e+01 5.7463140027e+01 1.7770000000e+00 0.0000e+00 -1.0000e+00
       22  1    3    3    0    0 +1.1204123727e+00 -1.1639376283e+01 +2.8743447731e+01 3.1030890925e+01 0.0000000000e+00 0.0000e+00 -1.0000e+00
<mgrwt>
<rscale>  2 0.12500000E+03</rscale>
<asrwt>0</asrwt>
<pdfrwt beam="1">  1       21 0.85476707E-02 0.12500000E+03</pdfrwt>
<pdfrwt beam="2">  1       21 0.98831282E-02 0.12500000E+03</pdfrwt>
<totfact> 0.88935649E+06</totfact>
</mgrwt>
</event>
<event>
 6      0 +1.3698540e+00 1.25000000e+02 7.54677100e-03 1.12640300e-01
       21 -1    0    0  502  501 +0.0000000000e+00 +0.0000000000e+00 +1.4682094658e+01 1.4682094658e+01 0.0000000000e+00 0.0000e+00 1.0000e+00
       21 -1    0    0  501  502 -0.0000000000e+00 -0.0000000000e+00 -2.6605536137e+02 2.6605536137e+02 0.0000000000e+00 0.0000e+00 1.0000e+00
       25  2    1    2    0    0 +0.0000000000e+00 +0.0000000000e+00 -2.5137326671e+02 2.8073745603e+02 1.2500000000e+02 0.0000e+00 0.0000e+00
      -15  1    3    3    0    0 +4.9431443138e+01 -3.8140978562e+01 -1.3053201331e+02 1.4470648239e+02 1.7770000000e+00 0.0000e+00 -1.0000e+00
       15  1    3    3    0    0 -4.9431930082e+01 +3.8134795855e+01 -1.2082028986e+02 1.3600911197e+02 1.7770000000e+00 0.0000e+00 -1.0000e+00
       22  1    3    3    0    0 +4.8694382841e-04 +6.1827069075e-03 -2.0963520045e-02 2.1861659399e-02 0.0000000000e+00 0.0000e+00 1.0000e+00
<mgrwt>
<rscale>  2 0.12500000E+03</rscale>
<asrwt>0</asrwt>
<pdfrwt beam="1">  1       21 0.21591316E-02 0.12500000E+03</pdfrwt>
<pdfrwt beam="2">  1       21 0.39125787E-01 0.12500000E+03</pdfrwt>
<totfact> 0.66203470E+06</totfact>
</mgrwt>
</event>
<event>
 6      0 +1.3698540e+00 1.25000000e+02 7.54677100e-03 1.12640300e-01
       21 -1    0    0  502  501 +0.0000000000e+00 +0.0000000000e+00 +1.4619165583e+02 1.4619165583e+02 0.0000000000e+00 0.0000e+00 1.0000e+00
       21 -1    0    0  501  502 -0.0000000000e+00 -0.0000000000e+00 -2.6720061263e+01 2.6720061263e+01 0.0000000000e+00 0.0000e+00 1.0000e+00
       25  2    1    2    0    0 +0.0000000000e+00 +0.0000000000e+00 +1.1947159457e+02 1.7291171710e+02 1.2500000000e+02 0.0000e+00 0.0000e+00
      -15  1    3    3    0    0 +4.8127836988e+01 +3.8367600391e+01 +4.7548715123e+01 7.7797168919e+01 1.7770000000e+00 0.0000e+00 1.0000e+00
       15  1    3    3    0    0 -4.5009845562e+01 -3.5895344611e+01 +7.0127647761e+01 9.0749141438e+01 1.7770000000e+00 0.0000e+00 1.0000e+00
       22  1    3    3    0    0 -3.1179914259e+00 -2.4722557803e+00 +1.7952316807e+00 4.3654067351e+00 0.0000000000e+00 0.0000e+00 -1.0000e+00
<mgrwt>
<rscale>  2 0.12500000E+03</rscale>
<asrwt>0</asrwt>
<pdfrwt beam="1">  1       21 0.21498773E-01 0.12500000E+03</pdfrwt>
<pdfrwt beam="2">  1       21 0.39294208E-02 0.12500000E+03</pdfrwt>
<totfact> 0.80904650E+06</totfact>
</mgrwt>
</event>
<event>
 6      0 +1.3698540e+00 1.25000000e+02 7.54677100e-03 1.12640300e-01
       21 -1    0    0  502  501 +0.0000000000e+00 +0.0000000000e+00 +3.6992884158e+01 3.6992884158e+01 0.0000000000e+00 0.0000e+00 -1.0000e+00
       21 -1    0    0  501  502 -0.0000000000e+00 -0.0000000000e+00 -1.0559463229e+02 1.0559463229e+02 0.0000000000e+00 0.0000e+00 -1.0000e+00
       25  2    1    2    0    0 +0.0000000000e+00 +0.0000000000e+00 -6.8601748131e+01 1.4258751645e+02 1.2500000000e+02 0.0000e+00 0.0000e+00
      -15  1    3    3    0    0 -1.6053076767e+00 +5.9070660128e+01 -5.7430330886e+01 8.2421602359e+01 1.7770000000e+00 0.0000e+00 -1.0000e+00
       15  1    3    3    0    0 +1.5895351543e+00 -5.8914089428e+01 -1.1142984814e+01 6.0006002989e+01 1.7770000000e+00 0.0000e+00 -1.0000e+00
       22  1    3    3    0    0 +1.5772522350e-02 -1.5657069969e-01 -2.8432429563e-02 1.5991109878e-01 0.0000000000e+00 0.0000e+00 -1.0000e+00
<mgrwt>
<rscale>  2 0.12500000E+03</rscale>
<asrwt>0</asrwt>
<pdfrwt beam="1">  1       21 0.54401302E-02 0.12500000E+03</pdfrwt>
<pdfrwt beam="2">  1       21 0.15528622E-01 0.12500000E+03</pdfrwt>
<totfact> 0.85891855E+06</totfact>
</mgrwt>
</event>
<event>
 6      0 +1.3698540e+00 1.25000000e+02 7.54677100e-03 1.12640300e-01
       21 -1    0    0  502  501 +0.0000000000e+00 +0.0000000000e+00 +1.1451006989e+01 1.1451006989e+01 0.0000000000e+00 0.0000e+00 1.0000e+00
       21 -1    0    0  501  502 -0.0000000000e+00 -0.0000000000e+00 -3.4112720426e+02 3.4112720426e+02 0.0000000000e+00 0.0000e+00 1.0000e+00
       25  2    1    2    0    0 +0.0000000000e+00 +0.0000000000e+00 -3.2967619727e+02 3.5257821125e+02 1.2500000000e+02 0.0000e+00 0.0000e+00
      -15  1    3    3    0    0 +4.6021379405e+01 +2.6155106117e+01 -2.5842938083e+02 2.6380098473e+02 1.7770000000e+00 0.0000e+00 1.0000e+00
       15  1    3    3    0    0 -4.6010813779e+01 -2.6147519960e+01 -7.1221790683e+01 8.8749022427e+01 1.7770000000e+00 0.0000e+00 1.0000e+00
       22  1    3    3    0    0 -1.0565626607e-02 -7.5861565756e-03 -2.5025734356e-02 2.8204070934e-02 0.0000000000e+00 0.0000e+00 -1.0000e+00
<mgrwt>
<rscale>  2 0.12500000E+03</rscale>
<asrwt>0</asrwt>
<pdfrwt beam="1">  1       21 0.16839716E-02 0.12500000E+03</pdfrwt>
<pdfrwt beam="2">  1       21 0.50165764E-01 0.12500000E+03</pdfrwt>
<totfact> 0.58265524E+06</totfact>
</mgrwt>
</event>
<event>
 6      0 +1.3698540e+00 1.25000000e+02 7.54677100e-03 1.12640300e-01
       21 -1    0    0  502  501 +0.0000000000e+00 +0.0000000000e+00 +1.8852843178e+02 1.8852843178e+02 0.0000000000e+00 0.0000e+00 -1.0000e+00
       21 -1    0    0  501  502 -0.0000000000e+00 -0.0000000000e+00 -2.0719686485e+01 2.0719686485e+01 0.0000000000e+00 0.0000e+00 -1.0000e+00
       25  2    1    2    0    0 +0.0000000000e+00 +0.0000000000e+00 +1.6780874529e+02 2.0924811826e+02 1.2500000000e+02 0.0000e+00 0.0000e+00
      -15  1    3    3    0    0 +8.2646805958e-01 -3.5361847297e+01 +2.1791156309e+01 4.1583115757e+01 1.7770000000e+00 0.0000e+00 -1.0000e+00
       15  1    3    3    0    0 -1.1092343541e+01 -1.5576645268e+00 -4.6077953540e+00 1.2241564894e+01 1.7770000000e+00 0.0000e+00 -1.0000e+00
       22  1    3    3    0    0 +1.0265875481e+01 +3.6919511824e+01 +1.5062538434e+02 1.5542343761e+02 0.0000000000e+00 0.0000e+00 -1.0000e+00
<mgrwt>
<rscale>  2 0.12500000E+03</rscale>
<asrwt>0</asrwt>
<pdfrwt beam="1">  1       21 0.27724768E-01 0.12500000E+03</pdfrwt>
<pdfrwt beam="2">  1       21 0.30470128E-02 0.12500000E+03</pdfrwt>
<totfact> 0.75490564E+06</totfact>
</mgrwt>
</event>
<event>
 6      0 +1.3698540e+00 1.25000000e+02 7.54677100e-03 1.12640300e-01
       21 -1    0    0  502  501 +0.0000000000e+00 +0.0000000000e+00 +1.0006160921e+01 1.0006160921e+01 0.0000000000e+00 0.0000e+00 1.0000e+00
       21 -1    0    0  501  502 -0.0000000000e+00 -0.0000000000e+00 -3.9038448719e+02 3.9038448719e+02 0.0000000000e+00 0.0000e+00 1.0000e+00
       25  2    1    2    0    0 +0.0000000000e+00 +0.0000000000e+00 -3.8037832627e+02 4.0039064811e+02 1.2500000000e+02 0.0000e+00 0.0000e+00
      -15  1    3    3    0    0 +7.5107130383e+00 +6.1767500145e+01 -2.0595058543e+02 2.1515212351e+02 1.7770000000e+00 0.0000e+00 -1.0000e+00
       15  1    3    3    0    0 -7.4926167751e+00 -6.1819810271e+01 -1.7420827692e+02 1.8501218804e+02 1.7770000000e+00 0.0000e+00 -1.0000e+00
       22  1    3    3    0    0 -1.8096263213e-02 +5.2310125709e-02 -2.1946394688e-01 2.2633658117e-01 0.0000000000e+00 0.0000e+00 -1.0000e+00
<mgrwt>
<rscale>  2 0.12500000E+03</rscale>
<asrwt>0</asrwt>
<pdfrwt beam="1">  1       21 0.14714945E-02 0.12500000E+03</pdfrwt>
<pdfrwt beam="2">  1       21 0.57409474E-01 0.12500000E+03</pdfrwt>
<totfact> 0.53619851E+06</totfact>
</mgrwt>
</event>
<event>
 6      0 +1.3698540e+00 1.25000000e+02 7.54677100e-03 1.12640300e-01
       21 -1    0    0  502  501 +0.0000000000e+00 +0.0000000000e+00 +2.7554026052e+02 2.7554026052e+02 0.0000000000e+00 0.0000e+00 -1.0000e+00
       21 -1    0    0  501  502 -0.0000000000e+00 -0.0000000000e+00 -1.4176694152e+01 1.4176694152e+01 0.0000000000e+00 0.0000e+00 -1.0000e+00
       25  2    1    2    0    0 +0.0000000000e+00 +0.0000000000e+00 +2.6136356637e+02 2.8971695467e+02 1.2500000000e+02 0.0000e+00 0.0000e+00
      -15  1    3    3    0    0 +4.0728444779e+01 -7.5810918091e+00 +7.1716755360e+01 8.2841595202e+01 1.7770000000e+00 0.0000e+00 -1.0000e+00
       15  1    3    3    0    0 -2.7777989718e+01 +3.0752426529e+01 +5.1134382315e+01 6.5842320995e+01 1.7770000000e+00 0.0000e+00 -1.0000e+00
       22  1    3    3    0    0 -1.2950455061e+01 -2.3171334720e+01 +1.3851242872e+02 1.4103303850e+02 0.0000000000e+00 0.0000e+00 -1.0000e+00
<mgrwt>
<rscale>  2 0.12500000E+03</rscale>
<asrwt>0</asrwt>
<pdfrwt beam="1">  1       21 0.40520623E-01 0.12500000E+03</pdfrwt>
<pdfrwt beam="2">  1       21 0.20848081E-02 0.12500000E+03</pdfrwt>
<totfact> 0.65142941E+06</totfact>
</mgrwt>
</event>
<event>
 6      0 +1.3698540e+00 1.25000000e+02 7.54677100e-03 1.12640300e-01
       21 -1    0    0  502  501 +0.0000000000e+00 +0.0000000000e+00 +3.2867200813e+01 3.2867200813e+01 0.0000000000e+00 0.0000e+00 -1.0000e+00
       21 -1    0    0  501  502 -0.0000000000e+00 -0.0000000000e+00 -1.1884948835e+02 1.1884948835e+02 0.0000000000e+00 0.0000e+00 -1.0000e+00
       25  2    1    2    0    0 +0.0000000000e+00 +0.0000000000e+00 -8.5982287535e+01 1.5171668916e+02 1.2500000000e+02 0.0000e+00 0.0000e+00
      -15  1    3    3    0    0 -1.9090192524e+00 -3.0008509969e+01 -3.9384068246e+01 4.9582432228e+01 1.7770000000e+00 0.0000e+00 -1.0000e+00
       15  1    3    3    0    0 +1.8941727265e+01 -2.0079896788e+01 +5.1408453373e+00 2.8134983679e+01 1.7770000000e+00 0.0000e+00 -1.0000e+00
       22  1    3    3    0    0 -1.7032708012e+01 +5.0088406757e+01 -5.1739064626e+01 7.3999273254e+01 0.0000000000e+00 0.0000e+00 -1.0000e+00
<mgrwt>
<rscale>  2 0.12500000E+03</rscale>
<asrwt>0</asrwt>
<pdfrwt beam="1">  1       21 0.48334120E-02 0.12500000E+03</pdfrwt>
<pdfrwt beam="2">  1       21 0.17477866E-01 0.12500000E+03</pdfrwt>
<totfact> 0.84338572E+06</totfact>
</mgrwt>
</event>
<event>
 6      0 +1.3698540e+00 1.25000000e+02 7.54677100e-03 1.12640300e-01
       21 -1    0    0  502  501 +0.0000000000e+00 +0.0000000000e+00 +1.3626825401e+03 1.3626825401e+03 0.0000000000e+00 0.0000e+00 -1.0000e+00
       21 -1    0    0  501  502 -0.0000000000e+00 -0.0000000000e+00 -2.8665884276e+00 2.8665884276e+00 0.0000000000e+00 0.0000e+00 -1.0000e+00
       25  2    1    2    0    0 +0.0000000000e+00 +0.0000000000e+00 +1.3598159517e+03 1.3655491286e+03 1.2500000000e+02 0.0000e+00 0.0000e+00
      -15  1    3    3    0    0 +1.5274182166e+01 -6.0477946201e+01 +6.4173562729e+02 6.4476248005e+02 1.7770000000e+00 0.0000e+00 -1.0000e+00
       15  1    3    3    0    0 -1.5274176521e+01 +6.0477923079e+01 +7.1808001667e+02 7.2078633985e+02 1.7770000000e+00 0.0000e+00 -1.0000e+00
       22  1    3    3    0    0 -5.6446690773e-06 +2.3121803146e-05 +3.0241937863e-04 3.0335451314e-04 0.0000000000e+00 0.0000e+00 1.0000e+00
<mgrwt>
<rscale>  2 0.12500000E+03</rscale>
<asrwt>0</asrwt>
<pdfrwt beam="1">  1       21 0.20039404E+00 0.12500000E+03</pdfrwt>
<pdfrwt beam="2">  1       21 0.42155807E-03 0.12500000E+03</pdfrwt>
<totfact> 0.12760765E+06</totfact>
</mgrwt>
</event>
<event>
 6      0 +1.3698540e+00 1.25000000e+02 7.54677100e-03 1.12640300e-01
       21 -1    0    0  502  501 +0.0000000000e+00 +0.0000000000e+00 +7.8175923861e+01 7.8175923861e+01 0.0000000000e+00 0.0000e+00 -1.0000e+00
       21 -1    0    0  501  502 -0.0000000000e+00 -0.0000000000e+00 -4.9967429959e+01 4.9967429959e+01 0.0000000000e+00 0.0000e+00 -1.0000e+00
       25  2    1    2    0    0 +0.0000000000e+00 +0.0000000000e+00 +2.8208493901e+01 1.2814335382e+02 1.2500000000e+02 0.0000e+00 0.0000e+00
      -15  1    3    3    0    0 +1.9100192316e+01 +3.0526915565e+01 +2.4221085980e+01 4.3434187634e+01 1.7770000000e+00 0.0000e+00 -1.0000e+00
       15  1    3    3    0    0 +1.2516073814e+01 -4.6808022200e+01 -2.5461670836e+00 4.8551866512e+01 1.7770000000e+00 0.0000e+00 -1.0000e+00
       22  1    3    3    0    0 -3.1616266131e+01 +1.6281106635e+01 +6.5335750048e+00 3.6157299673e+01 0.0000000000e+00 0.0000e+00 -1.0000e+00
<mgrwt>
<rscale>  2 0.12500000E+03</rscale>
<asrwt>0</asrwt>
<pdfrwt beam="1">  1       21 0.11496459E-01 0.12500000E+03</pdfrwt>
<pdfrwt beam="2">  1       21 0.73481515E-02 0.12500000E+03</pdfrwt>
<totfact> 0.88432349E+06</totfact>
</mgrwt>
</event>
<event>
 6      0 +1.3698540e+00 1.25000000e+02 7.54677100e-03 1.12640300e-01
       21 -1    0    0  502  501 +0.0000000000e+00 +0.0000000000e+00 +3.1792056672e+00 3.1792056672e+00 0.0000000000e+00 0.0000e+00 -1.0000e+00
       21 -1    0    0  501  502 -0.0000000000e+00 -0.0000000000e+00 -1.2286874172e+03 1.2286874172e+03 0.0000000000e+00 0.0000e+00 -1.0000e+00
       25  2    1    2    0    0 +0.0000000000e+00 +0.0000000000e+00 -1.2255082115e+03 1.2318666229e+03 1.2500000000e+02 0.0000e+00 0.0000e+00
      -15  1    3    3    0    0 -1.4651867978e+01 -1.8599364619e+01 -4.4301040382e+02 4.4364624333e+02 1.7770000000e+00 0.0000e+00 -1.0000e+00
       15  1    3    3    0    0 -7.6467800313e+00 -2.9130107607e+01 -1.2395080780e+02 1.2756957669e+02 1.7770000000e+00 0.0000e+00 -1.0000e+00
       22  1    3    3    0    0 +2.2298648010e+01 +4.7729472226e+01 -6.5854699356e+02 6.6065079653e+02 0.0000000000e+00 0.0000e+00 -1.0000e+00
<mgrwt>
<rscale>  2 0.12500000E+03</rscale>
<asrwt>0</asrwt>
<pdfrwt beam="1">  1       21 0.46752963E-03 0.12500000E+03</pdfrwt>
<pdfrwt beam="2">  1       21 0.18068956E+00 0.12500000E+03</pdfrwt>
<totfact> 0.15336497E+06</totfact>
</mgrwt>
</event>
<event>
 6      0 +1.3698540e+00 1.25000000e+02 7.54677100e-03 1.12640300e-01
       21 -1    0    0  502  501 +0.0000000000e+00 +0.0000000000e+00 +5.5686242549e+01 5.5686242549e+01 0.0000000000e+00 0.0000e+00 -1.0000e+00
       21 -1    0    0  501  502 -0.0000000000e+00 -0.0000000000e+00 -7.0147487444e+01 7.0147487444e+01 0.0000000000e+00 0.0000e+00 -1.0000e+00
       25  2    1    2    0    0 +0.0000000000e+00 +0.0000000000e+00 -1.4461244895e+01 1.2583372999e+02 1.2500000000e+02 0.0000e+00 0.0000e+00
      -15  1    3    3    0    0 -2.1212438400e+01 +3.2356746238e+01 -3.3689714246e+01 5.1333041454e+01 1.7770000000e+00 0.0000e+00 -1.0000e+00
       15  1    3    3    0    0 -1.9496636391e+01 -1.8309422488e+01 +1.6221516235e+01 3.1331279904e+01 1.7770000000e+00 0.0000e+00 -1.0000e+00
       22  1    3    3    0    0 +4.0709074791e+01 -1.4047323750e+01 +3.0069531145e+00 4.3169408635e+01 0.0000000000e+00 0.0000e+00 -1.0000e+00
<mgrwt>
<rscale>  2 0.12500000E+03</rscale>
<asrwt>0</asrwt>
<pdfrwt beam="1">  1       21 0.81891533E-02 0.12500000E+03</pdfrwt>
<pdfrwt beam="2">  1       21 0.10315807E-01 0.12500000E+03</pdfrwt>
<totfact> 0.88841946E+06</totfact>
</mgrwt>
</event>
<event>
 6      0 +1.3698540e+00 1.25000000e+02 7.54677100e-03 1.12640300e-01
       21 -1    0    0  502  501 +0.0000000000e+00 +0.0000000000e+00 +8.0602888282e+01 8.0602888282e+01 0.0000000000e+00 0.0000e+00 1.0000e+00
       21 -1    0    0  501  502 -0.0000000000e+00 -0.0000000000e+00 -4.8462903542e+01 4.8462903542e+01 0.0000000000e+00 0.0000e+00 1.0000e+00
       25  2    1    2    0    0 +0.0000000000e+00 +0.0000000000e+00 +3.2139984741e+01 1.2906579182e+02 1.2500000000e+02 0.0000e+00 0.0000e+00
      -15  1    3    3    0    0 +1.4286655607e+01 +1.8641949464e+01 -2.2409893497e+01 3.2511411285e+01 1.7770000000e+00 0.0000e+00 -1.0000e+00
       15  1    3    3    0    0 -1.6827384660e+01 +2.5365053524e+01 +3.9662091101e+01 5.0027852385e+01 1.7770000000e+00 0.0000e+00 -1.0000e+00
       22  1    3    3    0    0 +2.5407290531e+00 -4.4007002989e+01 +1.4887787137e+01 4.6526528153e+01 0.0000000000e+00 0.0000e+00 -1.0000e+00
<mgrwt>
<rscale>  2 0.12500000E+03</rscale>
<asrwt>0</asrwt>
<pdfrwt beam="1">  1       21 0.11853366E-01 0.12500000E+03</pdfrwt>
<pdfrwt beam="2">  1       21 0.71268976E-02 0.12500000E+03</pdfrwt>
<totfact> 0.88267472E+06</totfact>
</mgrwt>
</event>
<event>
 6      0 +1.3698540e+00 1.25000000e+02 7.54677100e-03 1.12640300e-01
       21 -1    0    0  502  501 +0.0000000000e+00 +0.0000000000e+00 +3.9159367136e+01 3.9159367136e+01 0.0000000000e+00 0.0000e+00 1.0000e+00
       21 -1    0    0  501  502 -0.0000000000e+00 -0.0000000000e+00 -9.9752633551e+01 9.9752633551e+01 0.0000000000e+00 0.0000e+00 1.0000e+00
       25  2    1    2    0    0 +0.0000000000e+00 +0.0000000000e+00 -6.0593266415e+01 1.3891200069e+02 1.2500000000e+02 0.0000e+00 0.0000e+00
      -15  1    3    3    0    0 +1.5464773605e+01 +5.9495537277e+01 -1.7911101246e+01 6.4053442182e+01 1.7770000000e+00 0.0000e+00 -1.0000e+00
       15  1    3    3    0    0 -1.5464773786e+01 -5.9495539907e+01 -4.2682162593e+01 7.4858554820e+01 1.7770000000e+00 0.0000e+00 -1.0000e+00
       22  1    3    3    0    0 +1.8040844523e-07 +2.6301341462e-06 -2.5741092415e-06 3.6845883381e-06 0.0000000000e+00 0.0000e+00 1.0000e+00
<mgrwt>
<rscale>  2 0.12500000E+03</rscale>
<asrwt>0</asrwt>
<pdfrwt beam="1">  1       21 0.57587305E-02 0.12500000E+03</pdfrwt>
<pdfrwt beam="2">  1       21 0.14669505E-01 0.12500000E+03</pdfrwt>
<totfact> 0.86528189E+06</totfact>
</mgrwt>
</event>
<event>
 6      0 +1.3698540e+00 1.25000000e+02 7.54677100e-03 1.12640300e-01
       21 -1    0    0  502  501 +0.0000000000e+00 +0.0000000000e+00 +9.1574120270e+01 9.1574120270e+01 0.0000000000e+00 0.0000e+00 1.0000e+00
       21 -1    0    0  501  502 -0.0000000000e+00 -0.0000000000e+00 -4.2656702445e+01 4.2656702445e+01 0.0000000000e+00 0.0000e+00 1.0000e+00
       25  2    1    2    0    0 +0.0000000000e+00 +0.0000000000e+00 +4.8917417825e+01 1.3423082271e+02 1.2500000000e+02 0.0000e+00 0.0000e+00
      -15  1    3    3    0    0 -8.2678157535e+00 -9.3878463209e+00 +1.2005293356e+01 1.7429091584e+01 1.7770000000e+00 0.0000e+00 -1.0000e+00
       15  1    3    3    0    0 -2.8843647706e+01 +3.6796079581e+01 -1.3271985460e+01 4.8633433074e+01 1.7770000000e+00 0.0000e+00 -1.0000e+00
       22  1    3    3    0    0 +3.7111463459e+01 -2.7408233260e+01 +5.0184109930e+01 6.8168298057e+01 0.0000000000e+00 0.0000e+00 -1.0000e+00
<mgrwt>
<rscale>  2 0.12500000E+03</rscale>
<asrwt>0</asrwt>
<pdfrwt beam="1">  1       21 0.13466782E-01 0.12500000E+03</pdfrwt>
<pdfrwt beam="2">  1       21 0.62730445E-02 0.12500000E+03</pdfrwt>
<totfact> 0.87340754E+06</totfact>
</mgrwt>
</event>
<event>
 6      0 +1.3698540e+00 1.25000000e+02 7.54677100e-03 1.12640300e-01
       21 -1    0    0  502  501 +0.0000000000e+00 +0.0000000000e+00 +4.8476875514e+01 4.8476875514e+01 0.0000000000e+00 0.0000e+00 -1.0000e+00
       21 -1    0    0  501  502 -0.0000000000e+00 -0.0000000000e+00 -8.0579656972e+01 8.0579656972e+01 0.0000000000e+00 0.0000e+00 -1.0000e+00
       25  2    1    2    0    0 +0.0000000000e+00 +0.0000000000e+00 -3.2102781457e+01 1.2905653249e+02 1.2500000000e+02 0.0000e+00 0.0000e+00
      -15  1    3    3    0    0 -4.6327580708e+01 -3.5374068717e+01 +7.1610624284e+00 5.8753791503e+01 1.7770000000e+00 0.0000e+00 1.0000e+00
       15  1    3    3    0    0 +4.6327706493e+01 +3.5374121455e+01 -3.9262516782e+01 7.0301406890e+01 1.7770000000e+00 0.0000e+00 1.0000e+00
       22  1    3    3    0    0 -1.2578496884e-04 -5.2738225810e-05 -1.3271029803e-03 1.3340935121e-03 0.0000000000e+00 0.0000e+00 1.0000e+00
<mgrwt>
<rscale>  2 0.12500000E+03</rscale>
<asrwt>0</asrwt>
<pdfrwt beam="1">  1       21 0.71289523E-02 0.12500000E+03</pdfrwt>
<pdfrwt beam="2">  1       21 0.11849949E-01 0.12500000E+03</pdfrwt>
<totfact> 0.88269141E+06</totfact>
</mgrwt>
</event>
<event>
 6      0 +1.3698540e+00 1.25000000e+02 7.54677100e-03 1.12640300e-01
       21 -1    0    0  502  501 +0.0000000000e+00 +0.0000000000e+00 +2.6105392086e+01 2.6105392086e+01 0.0000000000e+00 0.0000e+00 -1.0000e+00
       21 -1    0    0  501  502 -0.0000000000e+00 -0.0000000000e+00 -1.4963383760e+02 1.4963383760e+02 0.0000000000e+00 0.0000e+00 -1.0000e+00
       25  2    1    2    0    0 +0.0000000000e+00 +0.0000000000e+00 -1.2352844552e+02 1.7573922969e+02 1.2500000000e+02 0.0000e+00 0.0000e+00
      -15  1    3    3    0    0 +1.7319008458e+01 -9.4793105505e+00 -4.6722848808e+01 5.0754189110e+01 1.7770000000e+00 0.0000e+00 -1.0000e+00
       15  1    3    3    0    0 -3.0992927301e+01 +6.9446858174e+00 -9.6084597099e+01 1.0121362424e+02 1.7770000000e+00 0.0000e+00 -1.0000e+00
       22  1    3    3    0    0 +1.3673918843e+01 +2.5346247331e+00 +1.9279000383e+01 2.3771416341e+01 0.0000000000e+00 0.0000e+00 -1.0000e+00
<mgrwt>
<rscale>  2 0.12500000E+03</rscale>
<asrwt>0</asrwt>
<pdfrwt beam="1">  1       21 0.38390284E-02 0.12500000E+03</pdfrwt>
<pdfrwt beam="2">  1       21 0.22004975E-01 0.12500000E+03</pdfrwt>
<totfact> 0.80463236E+06</totfact>
</mgrwt>
</event>
<event>
 6      0 +1.3698540e+00 1.25000000e+02 7.54677100e-03 1.12640300e-01
       21 -1    0    0  502  501 +0.0000000000e+00 +0.0000000000e+00 +2.9023524566e+02 2.9023524566e+02 0.0000000000e+00 0.0000e+00 -1.0000e+00
       21 -1    0    0  501  502 -0.0000000000e+00 -0.0000000000e+00 -1.3458909827e+01 1.3458909827e+01 0.0000000000e+00 0.0000e+00 -1.0000e+00
       25  2    1    2    0    0 +0.0000000000e+00 +0.0000000000e+00 +2.7677633584e+02 3.0369415549e+02 1.2500000000e+02 0.0000e+00 0.0000e+00
      -15  1    3    3    0    0 -5.0722712324e+01 -3.0800658498e+01 +9.0926726572e+01 1.0859236365e+02 1.7770000000e+00 0.0000e+00 -1.0000e+00
       15  1    3    3    0    0 +5.0722711550e+01 +3.0800658873e+01 +1.8584960353e+02 1.9510178604e+02 1.7770000000e+00 0.0000e+00 -1.0000e+00
       22  1    3    3    0    0 +7.7397636995e-07 -3.7446605819e-07 +5.7564232305e-06 5.8202811494e-06 0.0000000000e+00 0.0000e+00 1.0000e+00
<mgrwt>
<rscale>  2 0.12500000E+03</rscale>
<asrwt>0</asrwt>
<pdfrwt beam="1">  1       21 0.42681650E-01 0.12500000E+03</pdfrwt>
<pdfrwt beam="2">  1       21 0.19792516E-02 0.12500000E+03</pdfrwt>
<totfact> 0.63527510E+06</totfact>
</mgrwt>
</event>
<event>
 6      0 +1.3698540e+00 1.25000000e+02 7.54677100e-03 1.12640300e-01
       21 -1    0    0  502  501 +0.0000000000e+00 +0.0000000000e+00 +1.1968668279e+02 1.1968668279e+02 0.0000000000e+00 0.0000e+00 1.0000e+00
       21 -1    0    0  501  502 -0.0000000000e+00 -0.0000000000e+00 -3.2637298561e+01 3.2637298561e+01 0.0000000000e+00 0.0000e+00 1.0000e+00
       25  2    1    2    0    0 +0.0000000000e+00 +0.0000000000e+00 +8.7049384229e+01 1.5232398135e+02 1.2500000000e+02 0.0000e+00 0.0000e+00
      -15  1    3    3    0    0 -1.1289210191e+01 -2.3996372864e+01 -2.4591229008e+01 3.6209921990e+01 1.7770000000e+00 0.0000e+00 -1.0000e+00
       15  1    3    3    0    0 -1.2085585239e-01 -2.5002470720e+00 +1.0513241446e+01 1.0952251652e+01 1.7770000000e+00 0.0000e+00 -1.0000e+00
       22  1    3    3    0    0 +1.1410066043e+01 +2.6496619936e+01 +1.0112737179e+02 1.0516180771e+02 0.0000000000e+00 0.0000e+00 -1.0000e+00
<mgrwt>
<rscale>  2 0.12500000E+03</rscale>
<asrwt>0</asrwt>
<pdfrwt beam="1">  1       21 0.17600983E-01 0.12500000E+03</pdfrwt>
<pdfrwt beam="2">  1       21 0.47996027E-02 0.12500000E+03</pdfrwt>
<totfact> 0.84237586E+06</totfact>
</mgrwt>
</event>
<event>
 6      0 +1.3698540e+00 1.25000000e+02 7.54677100e-03 1.12640300e-01
       21 -1    0    0  502  501 +0.0000000000e+00 +0.0000000000e+00 +3.8111393858e+01 3.8111393858e+01 0.0000000000e+00 0.0000e+00 -1.0000e+00
       21 -1    0    0  501  502 -0.0000000000e+00 -0.0000000000e+00 -1.0249559527e+02 1.0249559527e+02 0.0000000000e+00 0.0000e+00 -1.0000e+00
       25  2    1    2    0    0 +0.0000000000e+00 +0.0000000000e+00 -6.4384201411e+01 1.4060698913e+02 1.2500000000e+02 0.0000e+00 0.0000e+00
      -15  1    3    3    0    0 -3.6850597736e+01 +4.0191995408e+00 +1.7360514389e+01 4.0971523127e+01 1.7770000000e+00 0.0000e+00 -1.0000e+00
       15  1    3    3    0    0 +6.7471318647e+00 +1.1887206691e+01 -5.3951554528e+01 5.5684445192e+01 1.7770000000e+00 0.0000e+00 -1.0000e+00
       22  1    3    3    0    0 +3.0103465871e+01 -1.5906406232e+01 -2.7793161270e+01 4.3951020808e+01 0.0000000000e+00 0.0000e+00 -1.0000e+00
<mgrwt>
<rscale>  2 0.12500000E+03</rscale>
<asrwt>0</asrwt>
<pdfrwt beam="1">  1       21 0.56046169E-02 0.12500000E+03</pdfrwt>
<pdfrwt beam="2">  1       21 0.15072881E-01 0.12500000E+03</pdfrwt>
<totfact> 0.86235301E+06</totfact>
</mgrwt>
</event>
<event>
 6      0 +1.3698540e+00 1.25000000e+02 7.54677100e-03 1.12640300e-01
       21 -1    0    0  502  501 +0.0000000000e+00 +0.0000000000e+00 +2.5087358376e+01 2.5087358376e+01 0.0000000000e+00 0.0000e+00 1.0000e+00
       21 -1    0    0  501  502 -0.0000000000e+00 -0.0000000000e+00 -1.5570591138e+02 1.5570591138e+02 0.0000000000e+00 0.0000e+00 1.0000e+00
       25  2    1    2    0    0 +0.0000000000e+00 +0.0000000000e+00 -1.3061855300e+02 1.8079326975e+02 1.2500000000e+02 0.0000e+00 0.0000e+00
      -15  1    3    3    0    0 -1.2760003282e+01 +5.5220614164e+01 -1.0332805711e+02 1.1786423981e+02 1.7770000000e+00 0.0000e+00 -1.0000e+00
       15  1    3    3    0    0 +1.2760003210e+01 -5.5220614086e+01 -2.7290495871e+01 6.2929029835e+01 1.7770000000e+00 0.0000e+00 -1.0000e+00
       22  1    3    3    0    0 +7.2189690472e-08 -7.7259599506e-08 -2.8235733951e-08 1.0944246798e-07 0.0000000000e+00 0.0000e+00 1.0000e+00
<mgrwt>
<rscale>  2 0.12500000E+03</rscale>
<asrwt>0</asrwt>
<pdfrwt beam="1">  1       21 0.36893174E-02 0.12500000E+03</pdfrwt>
<pdfrwt beam="2">  1       21 0.22897928E-01 0.12500000E+03</pdfrwt>
<totfact> 0.79685126E+06</totfact>
</mgrwt>
</event>
<event>
 6      0 +1.3698540e+00 1.25000000e+02 7.54677100e-03 1.12640300e-01
       21 -1    0    0  502  501 +0.0000000000e+00 +0.0000000000e+00 +1.9588653942e+00 1.9588653942e+00 0.0000000000e+00 0.0000e+00 1.0000e+00
       21 -1    0    0  501  502 -0.0000000000e+00 -0.0000000000e+00 -1.9941390621e+03 1.9941390621e+03 0.0000000000e+00 0.0000e+00 1.0000e+00
       25  2    1    2    0    0 +0.0000000000e+00 +0.0000000000e+00 -1.9921801967e+03 1.9960979275e+03 1.2500000000e+02 0.0000e+00 0.0000e+00
      -15  1    3    3    0    0 -3.1698522109e+01 +4.2705882952e+01 -1.5195403899e+03 1.5204718817e+03 1.7770000000e+00 0.0000e+00 -1.0000e+00
       15  1    3    3    0    0 +3.1698525934e+01 -4.2705888532e+01 -4.7263961050e+02 4.7562584938e+02 1.7770000000e+00 0.0000e+00 -1.0000e+00
       22  1    3    3    0    0 -3.8255586760e-06 +5.5806934242e-06 -1.9333766917e-04 1.9345602435e-04 0.0000000000e+00 0.0000e+00 -1.0000e+00
<mgrwt>
<rscale>  2 0.12500000E+03</rscale>
<asrwt>0</asrwt>
<pdfrwt beam="1">  1       21 0.28806808E-03 0.12500000E+03</pdfrwt>
<pdfrwt beam="2">  1       21 0.29325611E+00 0.12500000E+03</pdfrwt>
<totfact> 0.54224017E+05</totfact>
</mgrwt>
</event>
<event>
 6      0 +1.3698540e+00 1.25000000e+02 7.54677100e-03 1.12640300e-01
       21 -1    0    0  502  501 +0.0000000000e+00 +0.0000000000e+00 +3.7745593100e+01 3.7745593100e+01 0.0000000000e+00 0.0000e+00 -1.0000e+00
       21 -1    0    0  501  502 -0.0000000000e+00 -0.0000000000e+00 -1.0348890239e+02 1.0348890239e+02 0.0000000000e+00 0.0000e+00 -1.0000e+00
       25  2    1    2    0    0 +0.0000000000e+00 +0.0000000000e+00 -6.5743309289e+01 1.4123449549e+02 1.2500000000e+02 0.0000e+00 0.0000e+00
      -15  1    3    3    0    0 +4.5330475328e+01 -3.6287157015e+01 -6.8237570264e+00 5.8492146025e+01 1.7770000000e+00 0.0000e+00 -1.0000e+00
       15  1    3    3    0    0 -4.5330537511e+01 +3.6287162709e+01 -5.8919541513e+01 8.2742286103e+01 1.7770000000e+00 0.0000e+00 -1.0000e+00
       22  1    3    3    0    0 +6.2183253090e-05 -5.6936231577e-06 -1.0750151605e-05 6.3361976525e-05 0.0000000000e+00 0.0000e+00 -1.0000e+00
<mgrwt>
<rscale>  2 0.12500000E+03</rscale>
<asrwt>0</asrwt>
<pdfrwt beam="1">  1       21 0.55508226E-02 0.12500000E+03</pdfrwt>
<pdfrwt beam="2">  1       21 0.15218956E-01 0.12500000E+03</pdfrwt>
<totfact> 0.86126612E+06</totfact>
</mgrwt>
</event>
<event>
 6      0 +1.3698540e+00 1.25000000e+02 7.54677100e-03 1.12640300e-01
       21 -1    0    0  502  501 +0.0000000000e+00 +0.0000000000e+00 +2.2796966954e+01 2.2796966954e+01 0.0000000000e+00 0.0000e+00 1.0000e+00
       21 -1    0    0  501  502 -0.0000000000e+00 -0.0000000000e+00 -1.7134954873e+02 1.7134954873e+02 0.0000000000e+00 0.0000e+00 1.0000e+00
       25  2    1    2    0    0 +0.0000000000e+00 +0.0000000000e+00 -1.4855258177e+02 1.9414651568e+02 1.2500000000e+02 0.0000e+00 0.0000e+00
      -15  1    3    3    0    0 -3.9562907381e+01 +3.1543429623e+01 -1.7359820652e+01 5.3523197726e+01 1.7770000000e+00 0.0000e+00 -1.0000e+00
       15  1    3    3    0    0 +3.9562930746e+01 -3.1543437729e+01 -1.3119275362e+02 1.4062329211e+02 1.7770000000e+00 0.0000e+00 -1.0000e+00
       22  1    3    3    0    0 -2.3364931476e-05 +8.1055863758e-06 -7.5003558324e-06 2.5843294893e-05 0.0000000000e+00 0.0000e+00 -1.0000e+00
<mgrwt>
<rscale>  2 0.12500000E+03</rscale>
<asrwt>0</asrwt>
<pdfrwt beam="1">  1       21 0.33524951E-02 0.12500000E+03</pdfrwt>
<pdfrwt beam="2">  1       21 0.25198463E-01 0.12500000E+03</pdfrwt>
<totfact> 0.77680993E+06</totfact>
</mgrwt>
</event>
<event>
 6      0 +1.3698540e+00 1.25000000e+02 7.54677100e-03 1.12640300e-01
       21 -1    0    0  502  501 +0.0000000000e+00 +0.0000000000e+00 +1.9159257946e+02 1.9159257946e+02 0.0000000000e+00 0.0000e+00 -1.0000e+00
       21 -1    0    0  501  502 -0.0000000000e+00 -0.0000000000e+00 -2.0388315722e+01 2.0388315722e+01 0.0000000000e+00 0.0000e+00 -1.0000e+00
       25  2    1    2    0    0 +0.0000000000e+00 +0.0000000000e+00 +1.7120426374e+02 2.1198089518e+02 1.2500000000e+02 0.0000e+00 0.0000e+00
      -15  1    3    3    0    0 -1.2818758480e+01 +3.3112803082e+01 +1.7259400645e+02 1.7621755613e+02 1.7770000000e+00 0.0000e+00 -1.0000e+00
       15  1    3    3    0    0 +1.2897283246e+01 -3.3089872080e+01 -1.5399976817e+00 3.5592258585e+01 1.7770000000e+00 0.0000e+00 -1.0000e+00
       22  1    3    3    0    0 -7.8524765723e-02 -2.2931001801e-02 +1.5025497342e-01 1.7108046853e-01 0.0000000000e+00 0.0000e+00 1.0000e+00
<mgrwt>
<rscale>  2 0.12500000E+03</rscale>
<asrwt>0</asrwt>
<pdfrwt beam="1">  1       21 0.28175378E-01 0.12500000E+03</pdfrwt>
<pdfrwt beam="2">  1       21 0.29982818E-02 0.12500000E+03</pdfrwt>
<totfact> 0.75105564E+06</totfact>
</mgrwt>
</event>
<event>
 6      0 +1.3698540e+00 1.25000000e+02 7.54677100e-03 1.12640300e-01
       21 -1    0    0  502  501 +0.0000000000e+00 +0.0000000000e+00 +1.2342003961e+02 1.2342003961e+02 0.0000000000e+00 0.0000e+00 1.0000e+00
       21 -1    0    0  501  502 -0.0000000000e+00 -0.0000000000e+00 -3.1650046559e+01 3.1650046559e+01 0.0000000000e+00 0.0000e+00 1.0000e+00
       25  2    1    2    0    0 +0.0000000000e+00 +0.0000000000e+00 +9.1769993053e+01 1.5507008617e+02 1.2500000000e+02 0.0000e+00 0.0000e+00
      -15  1    3    3    0    0 -3.1078144251e+01 -3.9334379830e+01 +5.9908738249e+01 7.8136157663e+01 1.7770000000e+00 0.0000e+00 -1.0000e+00
       15  1    3    3    0    0 +9.6790884599e+00 +1.1051151766e+01 +3.8145499920e+01 4.0915151251e+01 1.7770000000e+00 0.0000e+00 -1.0000e+00
       22  1    3    3    0    0 +2.1399055791e+01 +2.8283228064e+01 -6.2842451154e+00 3.6018777257e+01 0.0000000000e+00 0.0000e+00 -1.0000e+00
<mgrwt>
<rscale>  2 0.12500000E+03</rscale>
<asrwt>0</asrwt>
<pdfrwt beam="1">  1       21 0.18150006E-01 0.12500000E+03</pdfrwt>
<pdfrwt beam="2">  1       21 0.46544187E-02 0.12500000E+03</pdfrwt>
<totfact> 0.83783906E+06</totfact>
</mgrwt>
</event>
<event>
 6      0 +1.3698540e+00 1.25000000e+02 7.54677100e-03 1.12640300e-01
       21 -1    0    0  502  501 +0.0000000000e+00 +0.0000000000e+00 +6.2710072265e+00 6.2710072265e+00 0.0000000000e+00 0.0000e+00 -1.0000e+00
       21 -1    0    0  501  502 -0.0000000000e+00 -0.0000000000e+00 -6.2290631455e+02 6.2290631455e+02 0.0000000000e+00 0.0000e+00 -1.0000e+00
       25  2    1    2    0    0 +0.0000000000e+00 +0.0000000000e+00 -6.1663530732e+02 6.2917732178e+02 1.2500000000e+02 0.0000e+00 0.0000e+00
      -15  1    3    3    0    0 +1.3054740356e+01 +8.7703254443e+00 -4.0486633864e+00 1.6336898679e+01 1.7770000000e+00 0.0000e+00 -1.0000e+00
       15  1    3    3    0    0 -1.2827935016e+01 -7.9568507004e+00 -6.0700362149e+02 6.0719389129e+02 1.7770000000e+00 0.0000e+00 -1.0000e+00
       22  1    3    3    0    0 -2.2680533946e-01 -8.1347474387e-01 -5.5830222773e+00 5.6465316407e+00 0.0000000000e+00 0.0000e+00 1.0000e+00
<mgrwt>
<rscale>  2 0.12500000E+03</rscale>
<asrwt>0</asrwt>
<pdfrwt beam="1">  1       21 0.92220683E-03 0.12500000E+03</pdfrwt>
<pdfrwt beam="2">  1       21 0.91603881E-01 0.12500000E+03</pdfrwt>
<totfact> 0.36731378E+06</totfact>
</mgrwt>
</event>
<event>
 6      0 +1.3698540e+00 1.25000000e+02 7.54677100e-03 1.12640300e-01
       21 -1    0    0  502  501 +0.0000000000e+00 +0.0000000000e+00 +4.7546130176e+01 4.7546130176e+01 0.0000000000e+00 0.0000e+00 -1.0000e+00
       21 -1    0    0  501  502 -0.0000000000e+00 -0.0000000000e+00 -8.2157054329e+01 8.2157054329e+01 0.0000000000e+00 0.0000e+00 -1.0000e+00
       25  2    1    2    0    0 +0.0000000000e+00 +0.0000000000e+00 -3.4610924154e+01 1.2970318451e+02 1.2500000000e+02 0.0000e+00 0.0000e+00
      -15  1    3    3    0    0 +2.9519638897e+01 +2.6275560805e+01 -5.2017826100e+01 6.5351558033e+01 1.7770000000e+00 0.0000e+00 1.0000e+00
       15  1    3    3    0    0 -2.2862491186e+01 -2.7186574413e+01 +3.2280235817e+01 4.8030976306e+01 1.7770000000e+00 0.0000e+00 1.0000e+00
       22  1    3    3    0    0 -6.6571477105e+00 +9.1101360750e-01 -1.4873333870e+01 1.6320650166e+01 0.0000000000e+00 0.0000e+00 1.0000e+00
<mgrwt>
<rscale>  2 0.12500000E+03</rscale>
<asrwt>0</asrwt>
<pdfrwt beam="1">  1       21 0.69920780E-02 0.12500000E+03</pdfrwt>
<pdfrwt beam="2">  1       21 0.12081920E-01 0.12500000E+03</pdfrwt>
<totfact> 0.88152047E+06</totfact>
</mgrwt>
</event>
<event>
 6      0 +1.3698540e+00 1.25000000e+02 7.54677100e-03 1.12640300e-01
       21 -1    0    0  502  501 +0.0000000000e+00 +0.0000000000e+00 +5.1875657067e+00 5.1875657067e+00 0.0000000000e+00 0.0000e+00 -1.0000e+00
       21 -1    0    0  501  502 -0.0000000000e+00 -0.0000000000e+00 -7.5300251039e+02 7.5300251039e+02 0.0000000000e+00 0.0000e+00 -1.0000e+00
       25  2    1    2    0    0 +0.0000000000e+00 +0.0000000000e+00 -7.4781494469e+02 7.5819007610e+02 1.2500000000e+02 0.0000e+00 0.0000e+00
      -15  1    3    3    0    0 -3.2892743440e+01 -3.3424491187e+01 -1.5477777847e+02 1.6173573390e+02 1.7770000000e+00 0.0000e+00 -1.0000e+00
       15  1    3    3    0    0 +3.7650807753e+01 +4.0426329528e+01 -5.1885472400e+02 5.2179043091e+02 1.7770000000e+00 0.0000e+00 -1.0000e+00
       22  1    3    3    0    0 -4.7580643131e+00 -7.0018383405e+00 -7.4182442335e+01 7.4663911410e+01 0.0000000000e+00 0.0000e+00 1.0000e+00
<mgrwt>
<rscale>  2 0.12500000E+03</rscale>
<asrwt>0</asrwt>
<pdfrwt beam="1">  1       21 0.76287741E-03 0.12500000E+03</pdfrwt>
<pdfrwt beam="2">  1       21 0.11073565E+00 0.12500000E+03</pdfrwt>
<totfact> 0.30118072E+06</totfact>
</mgrwt>
</event>
<event>
 6      0 +1.3698540e+00 1.25000000e+02 7.54677100e-03 1.12640300e-01
       21 -1    0    0  502  501 +0.0000000000e+00 +0.0000000000e+00 +4.4603871799e+00 4.4603871799e+00 0.0000000000e+00 0.0000e+00 -1.0000e+00
       21 -1    0    0  501  502 -0.0000000000e+00 -0.0000000000e+00 -8.7576478060e+02 8.7576478060e+02 0.0000000000e+00 0.0000e+00 -1.0000e+00
       25  2    1    2    0    0 +0.0000000000e+00 +0.0000000000e+00 -8.7130439342e+02 8.8022516778e+02 1.2500000000e+02 0.0000e+00 0.0000e+00
      -15  1    3    3    0    0 +1.4781810634e+01 -3.9786199727e+01 -1.7163711910e+02 1.7681601170e+02 1.7770000000e+00 0.0000e+00 -1.0000e+00
       15  1    3    3    0    0 +1.9239626326e+01 +1.1873389959e+01 -3.8653861251e+02 3.8720330229e+02 1.7770000000e+00 0.0000e+00 -1.0000e+00
       22  1    3    3    0    0 -3.4021436961e+01 +2.7912809769e+01 -3.1312866180e+02 3.1620585378e+02 0.0000000000e+00 0.0000e+00 -1.0000e+00
<mgrwt>
<rscale>  2 0.12500000E+03</rscale>
<asrwt>0</asrwt>
<pdfrwt beam="1">  1       21 0.65593940E-03 0.12500000E+03</pdfrwt>
<pdfrwt beam="2">  1       21 0.12878892E+00 0.12500000E+03</pdfrwt>
<totfact> 0.25138584E+06</totfact>
</mgrwt>
</event>
<event>
 6      0 +1.3698540e+00 1.25000000e+02 7.54677100e-03 1.12640300e-01
       21 -1    0    0  502  501 +0.0000000000e+00 +0.0000000000e+00 +3.1953638306e+02 3.1953638306e+02 0.0000000000e+00 0.0000e+00 -1.0000e+00
       21 -1    0    0  501  502 -0.0000000000e+00 -0.0000000000e+00 -1.2224742493e+01 1.2224742493e+01 0.0000000000e+00 0.0000e+00 -1.0000e+00
       25  2    1    2    0    0 +0.0000000000e+00 +0.0000000000e+00 +3.0731164057e+02 3.3176112556e+02 1.2500000000e+02 0.0000e+00 0.0000e+00
      -15  1    3    3    0    0 -1.4102335836e+01 -3.4951612579e+01 +4.0147680409e+01 5.5095236356e+01 1.7770000000e+00 0.0000e+00 -1.0000e+00
       15  1    3    3    0    0 +1.8618545077e+01 +5.5298084613e+00 +2.2020804250e+02 2.2107005386e+02 1.7770000000e+00 0.0000e+00 -1.0000e+00
       22  1    3    3    0    0 -4.5162092411e+00 +2.9421804118e+01 +4.6955917630e+01 5.5595835311e+01 0.0000000000e+00 0.0000e+00 -1.0000e+00
<mgrwt>
<rscale>  2 0.12500000E+03</rscale>
<asrwt>0</asrwt>
<pdfrwt beam="1">  1       21 0.46990639E-01 0.12500000E+03</pdfrwt>
<pdfrwt beam="2">  1       21 0.17977565E-02 0.12500000E+03</pdfrwt>
<totfact> 0.60435084E+06</totfact>
</mgrwt>
</event>
<event>
 6      0 +1.3698540e+00 1.25000000e+02 7.54677100e-03 1.12640300e-01
       21 -1    0    0  502  501 +0.0000000000e+00 +0.0000000000e+00 +1.2279931169e+02 1.2279931169e+02 0.0000000000e+00 0.0000e+00 -1.0000e+00
       21 -1    0    0  501  502 -0.0000000000e+00 -0.0000000000e+00 -3.1810031720e+01 3.1810031720e+01 0.0000000000e+00 0.0000e+00 -1.0000e+00
       25  2    1    2    0    0 +0.0000000000e+00 +0.0000000000e+00 +9.0989279967e+01 1.5460934341e+02 1.2500000000e+02 0.0000e+00 0.0000e+00
      -15  1    3    3    0    0 +1.7194394511e+01 +2.6526810452e+00 -2.5283334433e+01 3.0742294130e+01 1.7770000000e+00 0.0000e+00 -1.0000e+00
       15  1    3    3    0    0 -2.2125730637e+01 -1.3187952709e+00 +2.9487936357e+01 3.6932144492e+01 1.7770000000e+00 0.0000e+00 -1.0000e+00
       22  1    3    3    0    0 +4.9313361262e+00 -1.3338857743e+00 +8.6784678041e+01 8.6934904784e+01 0.0000000000e+00 0.0000e+00 -1.0000e+00
<mgrwt>
<rscale>  2 0.12500000E+03</rscale>
<asrwt>0</asrwt>
<pdfrwt beam="1">  1       21 0.18058722E-01 0.12500000E+03</pdfrwt>
<pdfrwt beam="2">  1       21 0.46779459E-02 0.12500000E+03</pdfrwt>
<totfact> 0.83859702E+06</totfact>
</mgrwt>
</event>
<event>
 6      0 +1.3698540e+00 1.25000000e+02 7.54677100e-03 1.12640300e-01
       21 -1    0    0  502  501 +0.0000000000e+00 +0.0000000000e+00 +5.1147100461e+01 5.1147100461e+01 0.0000000000e+00 0.0000e+00 -1.0000e+00
       21 -1    0    0  501  502 -0.0000000000e+00 -0.0000000000e+00 -7.6372853296e+01 7.6372853296e+01 0.0000000000e+00 0.0000e+00 -1.0000e+00
       25  2    1    2    0    0 +0.0000000000e+00 +0.0000000000e+00 -2.5225752835e+01 1.2751995376e+02 1.2500000000e+02 0.0000e+00 0.0000e+00
      -15  1    3    3    0    0 -2.5202438719e+00 +1.4343097669e+01 -1.2520831801e+01 1.9287432123e+01 1.7770000000e+00 0.0000e+00 -1.0000e+00
       15  1    3    3    0    0 -3.2567121262e+01 -3.7402568004e+01 +2.1493946994e+01 5.4080652428e+01 1.7770000000e+00 0.0000e+00 -1.0000e+00
       22  1    3    3    0    0 +3.5087365134e+01 +2.3059470335e+01 -3.4198868027e+01 5.4151869207e+01 0.0000000000e+00 0.0000e+00 -1.0000e+00
<mgrwt>
<rscale>  2 0.12500000E+03</rscale>
<asrwt>0</asrwt>
<pdfrwt beam="1">  1       21 0.75216325E-02 0.12500000E+03</pdfrwt>
<pdfrwt beam="2">  1       21 0.11231302E-01 0.12500000E+03</pdfrwt>
<totfact> 0.88541955E+06</totfact>
</mgrwt>
</event>
<event>
 6      0 +1.3698540e+00 1.25000000e+02 7.54677100e-03 1.12640300e-01
       21 -1    0    0  502  501 +0.0000000000e+00 +0.0000000000e+00 +8.6739246852e+00 8.6739246852e+00 0.0000000000e+00 0.0000e+00 -1.0000e+00
       21 -1    0    0  501  502 -0.0000000000e+00 -0.0000000000e+00 -4.5034400710e+02 4.5034400710e+02 0.0000000000e+00 0.0000e+00 -1.0000e+00
       25  2    1    2    0    0 +0.0000000000e+00 +0.0000000000e+00 -4.4167008241e+02 4.5901793179e+02 1.2500000000e+02 0.0000e+00 0.0000e+00
      -15  1    3    3    0    0 +2.0356372225e+01 -4.6068150159e+01 -3.5657690569e+02 3.6012067942e+02 1.7770000000e+00 0.0000e+00 -1.0000e+00
       15  1    3    3    0    0 -2.0356306069e+01 +4.6067951601e+01 -8.5093013120e+01 9.8896986669e+01 1.7770000000e+00 0.0000e+00 -1.0000e+00
       22  1    3    3    0    0 -6.6155883456e-05 +1.9855770446e-04 -1.6347902141e-04 2.6556948875e-04 0.0000000000e+00 0.0000e+00 1.0000e+00
<mgrwt>
<rscale>  2 0.12500000E+03</rscale>
<asrwt>0</asrwt>
<pdfrwt beam="1">  1       21 0.12755772E-02 0.12500000E+03</pdfrwt>
<pdfrwt beam="2">  1       21 0.66227059E-01 0.12500000E+03</pdfrwt>
<totfact> 0.48532170E+06</totfact>
</mgrwt>
</event>
<event>
 6      0 +1.3698540e+00 1.25000000e+02 7.54677100e-03 1.12640300e-01
       21 -1    0    0  502  501 +0.0000000000e+00 +0.0000000000e+00 +8.7209313766e+01 8.7209313766e+01 0.0000000000e+00 0.0000e+00 -1.0000e+00
       21 -1    0    0  501  502 -0.0000000000e+00 -0.0000000000e+00 -4.4791660791e+01 4.4791660791e+01 0.0000000000e+00 0.0000e+00 -1.0000e+00
       25  2    1    2    0    0 +0.0000000000e+00 +0.0000000000e+00 +4.2417652975e+01 1.3200097456e+02 1.2500000000e+02 0.0000e+00 0.0000e+00
      -15  1    3    3    0    0 -5.8505488968e+01 -2.6657175354e+00 -3.5396759108e-01 5.8594208856e+01 1.7770000000e+00 0.0000e+00 -1.0000e+00
       15  1    3    3    0    0 +5.4809975879e+01 -4.2540352010e-01 +3.9259323221e+01 6.7444544723e+01 1.7770000000e+00 0.0000e+00 -1.0000e+00
       22  1    3    3    0    0 +3.6955130886e+00 +3.0911210555e+00 +3.5122973437e+00 5.9622209787e+00 0.0000000000e+00 0.0000e+00 -1.0000e+00
<mgrwt>
<rscale>  2 0.12500000E+03</rscale>
<asrwt>0</asrwt>
<pdfrwt beam="1">  1       21 0.12824899E-01 0.12500000E+03</pdfrwt>
<pdfrwt beam="2">  1       21 0.65870089E-02 0.12500000E+03</pdfrwt>
<totfact> 0.87736042E+06</totfact>
</mgrwt>
</event>
<event>
 6      0 +1.3698540e+00 1.25000000e+02 7.54677100e-03 1.12640300e-01
       21 -1    0    0  502  501 +0.0000000000e+00 +0.0000000000e+00 +1.0527945925e+02 1.0527945925e+02 0.0000000000e+00 0.0000e+00 -1.0000e+00
       21 -1    0    0  501  502 -0.0000000000e+00 -0.0000000000e+00 -3.7103629027e+01 3.7103629027e+01 0.0000000000e+00 0.0000e+00 -1.0000e+00
       25  2    1    2    0    0 +0.0000000000e+00 +0.0000000000e+00 +6.8175830220e+01 1.4238308827e+02 1.2500000000e+02 0.0000e+00 0.0000e+00
      -15  1    3    3    0    0 +1.3459969316e+01 -2.0123221647e+00 -3.5365821036e+01 3.7935725130e+01 1.7770000000e+00 0.0000e+00 1.0000e+00
       15  1    3    3    0    0 -1.3459965637e+01 +2.0123224650e+00 +1.0354164660e+02 1.0444735720e+02 1.7770000000e+00 0.0000e+00 1.0000e+00
       22  1    3    3    0    0 -3.6789770101e-06 -3.0027209800e-07 +4.6580698201e-06 5.9432860963e-06 0.0000000000e+00 0.0000e+00 -1.0000e+00
<mgrwt>
<rscale>  2 0.12500000E+03</rscale>
<asrwt>0</asrwt>
<pdfrwt beam="1">  1       21 0.15482273E-01 0.12500000E+03</pdfrwt>
<pdfrwt beam="2">  1       21 0.54564161E-02 0.12500000E+03</pdfrwt>
<totfact> 0.85927357E+06</totfact>
</mgrwt>
</event>
<event>
 6      0 +1.3698540e+00 1.25000000e+02 7.54677100e-03 1.12640300e-01
       21 -1    0    0  502  501 +0.0000000000e+00 +0.0000000000e+00 +2.5152129077e+01 2.5152129077e+01 0.0000000000e+00 0.0000e+00 -1.0000e+00
       21 -1    0    0  501  502 -0.0000000000e+00 -0.0000000000e+00 -1.5530494409e+02 1.5530494409e+02 0.0000000000e+00 0.0000e+00 -1.0000e+00
       25  2    1    2    0    0 +0.0000000000e+00 +0.0000000000e+00 -1.3015281501e+02 1.8045707317e+02 1.2500000000e+02 0.0000e+00 0.0000e+00
      -15  1    3    3    0    0 -1.2442052824e+01 -7.2428525065e+00 -1.0183595990e+02 1.0286391033e+02 1.7770000000e+00 0.0000e+00 -1.0000e+00
       15  1    3    3    0    0 +3.7656765139e+01 +2.1242782973e+01 -1.9254958068e+01 4.7362421057e+01 1.7770000000e+00 0.0000e+00 -1.0000e+00
       22  1    3    3    0    0 -2.5214712315e+01 -1.3999930466e+01 -9.0618970358e+00 3.0230741772e+01 0.0000000000e+00 0.0000e+00 -1.0000e+00
<mgrwt>
<rscale>  2 0.12500000E+03</rscale>
<asrwt>0</asrwt>
<pdfrwt beam="1">  1       21 0.36988424E-02 0.12500000E+03</pdfrwt>
<pdfrwt beam="2">  1       21 0.22838963E-01 0.12500000E+03</pdfrwt>
<totfact> 0.79736478E+06</totfact>
</mgrwt>
</event>
<event>
 6      0 +1.3698540e+00 1.25000000e+02 7.54677100e-03 1.12640300e-01
       21 -1    0    0  502  501 +0.0000000000e+00 +0.0000000000e+00 +2.2712156995e+01 2.2712156995e+01 0.0000000000e+00 0.0000e+00 1.0000e+00
       21 -1    0    0  501  502 -0.0000000000e+00 -0.0000000000e+00 -1.7198938880e+02 1.7198938880e+02 0.0000000000e+00 0.0000e+00 1.0000e+00
       25  2    1    2    0    0 +0.0000000000e+00 +0.0000000000e+00 -1.4927723181e+02 1.9470154580e+02 1.2500000000e+02 0.0000e+00 0.0000e+00
      -15  1    3    3    0    0 -1.3306354692e+01 +1.4568025843e+01 -2.8260820455e+01 3.4512579647e+01 1.7770000000e+00 0.0000e+00 -1.0000e+00
       15  1    3    3    0    0 -2.9958242727e+01 -1.5782724322e+01 -2.4806905661e+00 3.3998562456e+01 1.7770000000e+00 0.0000e+00 -1.0000e+00
       22  1    3    3    0    0 +4.3264597419e+01 +1.2146984799e+00 -1.1853572079e+02 1.2619040370e+02 0.0000000000e+00 0.0000e+00 -1.0000e+00
<mgrwt>
<rscale>  2 0.12500000E+03</rscale>
<asrwt>0</asrwt>
<pdfrwt beam="1">  1       21 0.33400230E-02 0.12500000E+03</pdfrwt>
<pdfrwt beam="2">  1       21 0.25292558E-01 0.12500000E+03</pdfrwt>
<totfact> 0.77598770E+06</totfact>
</mgrwt>
</event>
<event>
 6      0 +1.3698540e+00 1.25000000e+02 7.54677100e-03 1.12640300e-01
       21 -1    0    0  502  501 +0.0000000000e+00 +0.0000000000e+00 +2.0908460828e+01 2.0908460828e+01 0.0000000000e+00 0.0000e+00 -1.0000e+00
       21 -1    0    0  501  502 -0.0000000000e+00 -0.0000000000e+00 -1.8682628205e+02 1.8682628205e+02 0.0000000000e+00 0.0000e+00 -1.0000e+00
       25  2    1    2    0    0 +0.0000000000e+00 +0.0000000000e+00 -1.6591782123e+02 2.0773474288e+02 1.2500000000e+02 0.0000e+00 0.0000e+00
      -15  1    3    3    0    0 +2.6268534762e+01 -1.2113508967e+00 -1.1822684971e+01 2.8886621444e+01 1.7770000000e+00 0.0000e+00 -1.0000e+00
       15  1    3    3    0    0 -4.5553231884e+00 +2.6884457581e+01 -7.3452963337e+00 2.8295514415e+01 1.7770000000e+00 0.0000e+00 -1.0000e+00
       22  1    3    3    0    0 -2.1713211574e+01 -2.5673106684e+01 -1.4674983994e+02 1.5055260704e+02 0.0000000000e+00 0.0000e+00 -1.0000e+00
<mgrwt>
<rscale>  2 0.12500000E+03</rscale>
<asrwt>0</asrwt>
<pdfrwt beam="1">  1       21 0.30747737E-02 0.12500000E+03</pdfrwt>
<pdfrwt beam="2">  1       21 0.27474453E-01 0.12500000E+03</pdfrwt>
<totfact> 0.75705174E+06</totfact>
</mgrwt>
</event>
<event>
 6      0 +1.3698540e+00 1.25000000e+02 7.54677100e-03 1.12640300e-01
       21 -1    0    0  502  501 +0.0000000000e+00 +0.0000000000e+00 +2.6887440055e+02 2.6887440055e+02 0.0000000000e+00 0.0000e+00 -1.0000e+00
       21 -1    0    0  501  502 -0.0000000000e+00 -0.0000000000e+00 -1.4528158843e+01 1.4528158843e+01 0.0000000000e+00 0.0000e+00 -1.0000e+00
       25  2    1    2    0    0 +0.0000000000e+00 +0.0000000000e+00 +2.5434624171e+02 2.8340255939e+02 1.2500000000e+02 0.0000e+00 0.0000e+00
      -15  1    3    3    0    0 +5.0253232879e+01 +5.2687944568e+00 +1.3378655782e+02 1.4302149626e+02 1.7770000000e+00 0.0000e+00 -1.0000e+00
       15  1    3    3    0    0 +4.3524123311e-01 +2.4843887917e+00 +6.3854689264e+01 6.3929184983e+01 1.7770000000e+00 0.0000e+00 -1.0000e+00
       22  1    3    3    0    0 -5.0688474112e+01 -7.7531832484e+00 +5.6704994653e+01 7.6451878178e+01 0.0000000000e+00 0.0000e+00 -1.0000e+00
<mgrwt>
<rscale>  2 0.12500000E+03</rscale>
<asrwt>0</asrwt>
<pdfrwt beam="1">  1       21 0.39540350E-01 0.12500000E+03</pdfrwt>
<pdfrwt beam="2">  1       21 0.21364941E-02 0.12500000E+03</pdfrwt>
<totfact> 0.65886788E+06</totfact>
</mgrwt>
</event>
<event>
 6      0 +1.3698540e+00 1.25000000e+02 7.54677100e-03 1.12640300e-01
       21 -1    0    0  502  501 +0.0000000000e+00 +0.0000000000e+00 +2.0192817749e+02 2.0192817749e+02 0.0000000000e+00 0.0000e+00 -1.0000e+00
       21 -1    0    0  501  502 -0.0000000000e+00 -0.0000000000e+00 -1.9344749447e+01 1.9344749447e+01 0.0000000000e+00 0.0000e+00 -1.0000e+00
       25  2    1    2    0    0 +0.0000000000e+00 +0.0000000000e+00 +1.8258342805e+02 2.2127292694e+02 1.2500000000e+02 0.0000e+00 0.0000e+00
      -15  1    3    3    0    0 +1.7302948755e+01 +9.3423630990e+00 +4.2147357319e+00 2.0188945248e+01 1.7770000000e+00 0.0000e+00 -1.0000e+00
       15  1    3    3    0    0 -1.5046653633e+01 -4.8966149297e+01 +8.0012620774e+01 9.5022433007e+01 1.7770000000e+00 0.0000e+00 -1.0000e+00
       22  1    3    3    0    0 -2.2562951227e+00 +3.9623786198e+01 +9.8356071556e+01 1.0606154870e+02 0.0000000000e+00 0.0000e+00 -1.0000e+00
<mgrwt>
<rscale>  2 0.12500000E+03</rscale>
<asrwt>0</asrwt>
<pdfrwt beam="1">  1       21 0.29695319E-01 0.12500000E+03</pdfrwt>
<pdfrwt beam="2">  1       21 0.28448162E-02 0.12500000E+03</pdfrwt>
<totfact> 0.73818866E+06</totfact>
</mgrwt>
</event>
<event>
 6      0 +1.3698540e+00 1.25000000e+02 7.54677100e-03 1.12640300e-01
       21 -1    0    0  502  501 +0.0000000000e+00 +0.0000000000e+00 +1.3387252219e+02 1.3387252219e+02 0.0000000000e+00 0.0000e+00 1.0000e+00
       21 -1    0    0  501  502 -0.0000000000e+00 -0.0000000000e+00 -2.9178878055e+01 2.9178878055e+01 0.0000000000e+00 0.0000e+00 1.0000e+00
       25  2    1    2    0    0 +0.0000000000e+00 +0.0000000000e+00 +1.0469364414e+02 1.6305140025e+02 1.2500000000e+02 0.0000e+00 0.0000e+00
      -15  1    3    3    0    0 -2.7176017491e+01 +5.5153223207e+01 +6.6794512114e+01 9.0802414804e+01 1.7770000000e+00 0.0000e+00 1.0000e+00
       15  1    3    3    0    0 +2.7176010601e+01 -5.5153208092e+01 +3.7899120919e+01 7.2248965463e+01 1.7770000000e+00 0.0000e+00 1.0000e+00
       22  1    3    3    0    0 +6.8900023901e-06 -1.5114236485e-05 +1.1106686089e-05 1.9981760517e-05 0.0000000000e+00 0.0000e+00 -1.0000e+00
<mgrwt>
<rscale>  2 0.12500000E+03</rscale>
<asrwt>0</asrwt>
<pdfrwt beam="1">  1       21 0.19687135E-01 0.12500000E+03</pdfrwt>
<pdfrwt beam="2">  1       21 0.42910115E-02 0.12500000E+03</pdfrwt>
<totfact> 0.82482458E+06</totfact>
</mgrwt>
</event>
<event>
 6      0 +1.3698540e+00 1.25000000e+02 7.54677100e-03 1.12640300e-01
       21 -1    0    0  502  501 +0.0000000000e+00 +0.0000000000e+00 +4.8367820774e+02 4.8367820774e+02 0.0000000000e+00 0.0000e+00 1.0000e+00
       21 -1    0    0  501  502 -0.0000000000e+00 -0.0000000000e+00 -8.0761339616e+00 8.0761339616e+00 0.0000000000e+00 0.0000e+00 1.0000e+00
       25  2    1    2    0    0 +0.0000000000e+00 +0.0000000000e+00 +4.7560207378e+02 4.9175434170e+02 1.2500000000e+02 0.0000e+00 0.0000e+00
      -15  1    3    3    0    0 +5.6199181711e+00 -2.8167336071e+01 +9.1259858046e+01 9.5689611355e+01 1.7770000000e+00 0.0000e+00 -1.0000e+00
       15  1    3    3    0    0 +1.2359470847e+01 +5.1227615725e+01 +1.3368286315e+02 1.4370556969e+02 1.7770000000e+00 0.0000e+00 -1.0000e+00
       22  1    3    3    0    0 -1.7979389018e+01 -2.3060279655e+01 +2.5065935263e+02 2.5235916070e+02 0.0000000000e+00 0.0000e+00 -1.0000e+00
<mgrwt>
<rscale>  2 0.12500000E+03</rscale>
<asrwt>0</asrwt>
<pdfrwt beam="1">  1       21 0.71129129E-01 0.12500000E+03</pdfrwt>
<pdfrwt beam="2">  1       21 0.11876671E-02 0.12500000E+03</pdfrwt>
<totfact> 0.45945619E+06</totfact>
</mgrwt>
</event>
<event>
 6      0 +1.3698540e+00 1.25000000e+02 7.54677100e-03 1.12640300e-01
       21 -1    0    0  502  501 +0.0000000000e+00 +0.0000000000e+00 +1.2227017100e+02 1.2227017100e+02 0.0000000000e+00 0.0000e+00 1.0000e+00
       21 -1    0    0  501  502 -0.0000000000e+00 -0.0000000000e+00 -3.1947693931e+01 3.1947693931e+01 0.0000000000e+00 0.0000e+00 1.0000e+00
       25  2    1    2    0    0 +0.0000000000e+00 +0.0000000000e+00 +9.0322477069e+01 1.5421786493e+02 1.2500000000e+02 0.0000e+00 0.0000e+00
      -15  1    3    3    0    0 -4.8033695332e+01 -1.7673613048e+00 +3.0054179740e+01 5.6716584012e+01 1.7770000000e+00 0.0000e+00 -1.0000e+00
       15  1    3    3    0    0 +2.9182776088e+01 +2.9884880005e+01 +4.0965793492e+01 5.8532849226e+01 1.7770000000e+00 0.0000e+00 -1.0000e+00
       22  1    3    3    0    0 +1.8850919243e+01 -2.8117518700e+01 +1.9302503838e+01 3.8968431693e+01 0.0000000000e+00 0.0000e+00 -1.0000e+00
<mgrwt>
<rscale>  2 0.12500000E+03</rscale>
<asrwt>0</asrwt>
<pdfrwt beam="1">  1       21 0.17980907E-01 0.12500000E+03</pdfrwt>
<pdfrwt beam="2">  1       21 0.46981903E-02 0.12500000E+03</pdfrwt>
<totfact> 0.83924202E+06</totfact>
</mgrwt>
</event>
<event>
 6      0 +1.3698540e+00 1.25000000e+02 7.54677100e-03 1.12640300e-01
       21 -1    0    0  502  501 +0.0000000000e+00 +0.0000000000e+00 +2.6503010083e+02 2.6503010083e+02 0.0000000000e+00 0.0000e+00 1.0000e+00
       21 -1    0    0  501  502 -0.0000000000e+00 -0.0000000000e+00 -1.4738891876e+01 1.4738891876e+01 0.0000000000e+00 0.0000e+00 1.0000e+00
       25  2    1    2    0    0 +0.0000000000e+00 +0.0000000000e+00 +2.5029120895e+02 2.7976899270e+02 1.2500000000e+02 0.0000e+00 0.0000e+00
      -15  1    3    3    0    0 -4.1678381372e+01 +1.6344085838e+01 +1.3098890084e+02 1.3843939644e+02 1.7770000000e+00 0.0000e+00 -1.0000e+00
       15  1    3    3    0    0 +4.7154890472e+01 +7.1273554177e+00 +9.8660012230e+01 1.0959625282e+02 1.7770000000e+00 0.0000e+00 -1.0000e+00
       22  1    3    3    0    0 -5.4765091004e+00 -2.3471441256e+01 +2.0642295895e+01 3.1733343448e+01 0.0000000000e+00 0.0000e+00 -1.0000e+00
<mgrwt>
<rscale>  2 0.12500000E+03</rscale>
<asrwt>0</asrwt>
<pdfrwt beam="1">  1       21 0.38975012E-01 0.12500000E+03</pdfrwt>
<pdfrwt beam="2">  1       21 0.21674843E-02 0.12500000E+03</pdfrwt>
<totfact> 0.66318961E+06</totfact>
</mgrwt>
</event>
<event>
 6      0 +1.3698540e+00 1.25000000e+02 7.54677100e-03 1.12640300e-01
       21 -1    0    0  502  501 +0.0000000000e+00 +0.0000000000e+00 +1.2437998793e+02 1.2437998793e+02 0.0000000000e+00 0.0000e+00 -1.0000e+00
       21 -1    0    0  501  502 -0.0000000000e+00 -0.0000000000e+00 -3.1405775680e+01 3.1405775680e+01 0.0000000000e+00 0.0000e+00 -1.0000e+00
       25  2    1    2    0    0 +0.0000000000e+00 +0.0000000000e+00 +9.2974212249e+01 1.5578576361e+02 1.2500000000e+02 0.0000e+00 0.0000e+00
      -15  1    3    3    0    0 -6.6396305833e+00 -5.5015492178e+01 +3.2958046949e+01 6.4499454739e+01 1.7770000000e+00 0.0000e+00 -1.0000e+00
       15  1    3    3    0    0 -1.6514575419e+01 +1.8122848740e+01 +1.5817053444e+01 2.9231930425e+01 1.7770000000e+00 0.0000e+00 -1.0000e+00
       22  1    3    3    0    0 +2.3154206003e+01 +3.6892643437e+01 +4.4199111855e+01 6.2054378445e+01 0.0000000000e+00 0.0000e+00 -1.0000e+00
<mgrwt>
<rscale>  2 0.12500000E+03</rscale>
<asrwt>0</asrwt>
<pdfrwt beam="1">  1       21 0.18291174E-01 0.12500000E+03</pdfrwt>
<pdfrwt beam="2">  1       21 0.46184965E-02 0.12500000E+03</pdfrwt>
<totfact> 0.83666414E+06</totfact>
</mgrwt>
</event>
<event>
 6      0 +1.3698540e+00 1.25000000e+02 7.54677100e-03 1.12640300e-01
       21 -1    0    0  502  501 +0.0000000000e+00 +0.0000000000e+00 +4.1017718405e+02 4.1017718405e+02 0.0000000000e+00 0.0000e+00 -1.0000e+00
       21 -1    0    0  501  502 -0.0000000000e+00 -0.0000000000e+00 -9.5233234609e+00 9.5233234609e+00 0.0000000000e+00 0.0000e+00 -1.0000e+00
       25  2    1    2    0    0 +0.0000000000e+00 +0.0000000000e+00 +4.0065386059e+02 4.1970050751e+02 1.2500000000e+02 0.0000e+00 0.0000e+00
      -15  1    3    3    0    0 -3.2707199760e+00 +1.1494417676e+00 +4.0976913237e+02 4.0978765037e+02 1.7770000000e+00 0.0000e+00 1.0000e+00
       15  1    3    3    0    0 +3.2707195932e+00 -1.1494417907e+00 -9.1152716366e+00 9.9128567542e+00 1.7770000000e+00 0.0000e+00 1.0000e+00
       22  1    3    3    0    0 +3.8278892971e-07 +2.3063093078e-08 -1.2454413551e-07 4.0320033794e-07 0.0000000000e+00 0.0000e+00 -1.0000e+00
<mgrwt>
<rscale>  2 0.12500000E+03</rscale>
<asrwt>0</asrwt>
<pdfrwt beam="1">  1       21 0.60320162E-01 0.12500000E+03</pdfrwt>
<pdfrwt beam="2">  1       21 0.14004890E-02 0.12500000E+03</pdfrwt>
<totfact> 0.51874474E+06</totfact>
</mgrwt>
</event>
<event>
 6      0 +1.3698540e+00 1.25000000e+02 7.54677100e-03 1.12640300e-01
       21 -1    0    0  502  501 +0.0000000000e+00 +0.0000000000e+00 +1.1513762386e+03 1.1513762386e+03 0.0000000000e+00 0.0000e+00 1.0000e+00
       21 -1    0    0  501  502 -0.0000000000e+00 -0.0000000000e+00 -3.3926790124e+00 3.3926790124e+00 0.0000000000e+00 0.0000e+00 1.0000e+00
       25  2    1    2    0    0 +0.0000000000e+00 +0.0000000000e+00 +1.1479835596e+03 1.1547689176e+03 1.2500000000e+02 0.0000e+00 0.0000e+00
      -15  1    3    3    0    0 +3.5007203354e+01 +1.5685364185e+01 +1.9547814614e+02 1.9921445300e+02 1.7770000000e+00 0.0000e+00 -1.0000e+00
       15  1    3    3    0    0 +1.6585755975e+01 -1.8042948701e+01 +3.2433234351e+02 3.2526183618e+02 1.7770000000e+00 0.0000e+00 -1.0000e+00
       22  1    3    3    0    0 -5.1592959328e+01 +2.3575845160e+00 +6.2817307204e+02 6.3029263052e+02 0.0000000000e+00 0.0000e+00 -1.0000e+00
<mgrwt>
<rscale>  2 0.12500000E+03</rscale>
<asrwt>0</asrwt>
<pdfrwt beam="1">  1       21 0.16931976E+00 0.12500000E+03</pdfrwt>
<pdfrwt beam="2">  1       21 0.49892418E-03 0.12500000E+03</pdfrwt>
<totfact> 0.17059667E+06</totfact>
</mgrwt>
</event>
<event>
 6      0 +1.3698540e+00 1.25000000e+02 7.54677100e-03 1.12640300e-01
       21 -1    0    0  502  501 +0.0000000000e+00 +0.0000000000e+00 +2.2682842104e+02 2.2682842104e+02 0.0000000000e+00 0.0000e+00 1.0000e+00
       21 -1    0    0  501  502 -0.0000000000e+00 -0.0000000000e+00 -1.7221166475e+01 1.7221166475e+01 0.0000000000e+00 0.0000e+00 1.0000e+00
       25  2    1    2    0    0 +0.0000000000e+00 +0.0000000000e+00 +2.0960725457e+02 2.4404958752e+02 1.2500000000e+02 0.0000e+00 0.0000e+00
      -15  1    3    3    0    0 -2.2118224112e+01 -2.4177845757e+01 +7.3186439862e+01 8.0207211471e+01 1.7770000000e+00 0.0000e+00 -1.0000e+00
       15  1    3    3    0    0 +4.0580707140e+01 -1.8124343761e+01 +7.0879456049e+01 8.3679989529e+01 1.7770000000e+00 0.0000e+00 -1.0000e+00
       22  1    3    3    0    0 -1.8462483029e+01 +4.2302189518e+01 +6.5541358657e+01 8.0162386518e+01 0.0000000000e+00 0.0000e+00 -1.0000e+00
<mgrwt>
<rscale>  2 0.12500000E+03</rscale>
<asrwt>0</asrwt>
<pdfrwt beam="1">  1       21 0.33357119E-01 0.12500000E+03</pdfrwt>
<pdfrwt beam="2">  1       21 0.25325246E-02 0.12500000E+03</pdfrwt>
<totfact> 0.70774389E+06</totfact>
</mgrwt>
</event>
<event>
 6      0 +1.3698540e+00 1.25000000e+02 7.54677100e-03 1.12640300e-01
       21 -1    0    0  502  501 +0.0000000000e+00 +0.0000000000e+00 +1.5760022908e+01 1.5760022908e+01 0.0000000000e+00 0.0000e+00 1.0000e+00
       21 -1    0    0  501  502 -0.0000000000e+00 -0.0000000000e+00 -2.4785814227e+02 2.4785814227e+02 0.0000000000e+00 0.0000e+00 1.0000e+00
       25  2    1    2    0    0 +0.0000000000e+00 +0.0000000000e+00 -2.3209811936e+02 2.6361816518e+02 1.2500000000e+02 0.0000e+00 0.0000e+00
      -15  1    3    3    0    0 +4.7006893954e+00 +2.5546206004e+01 -2.7140608239e+01 3.7609512979e+01 1.7770000000e+00 0.0000e+00 -1.0000e+00
       15  1    3    3    0    0 +3.0237108246e+01 +1.9196336687e+01 -5.4916675923e+01 6.5587964450e+01 1.7770000000e+00 0.0000e+00 -1.0000e+00
       22  1    3    3    0    0 -3.4937797641e+01 -4.4742542690e+01 -1.5004083518e+02 1.6042068773e+02 0.0000000000e+00 0.0000e+00 -1.0000e+00
<mgrwt>
<rscale>  2 0.12500000E+03</rscale>
<asrwt>0</asrwt>
<pdfrwt beam="1">  1       21 0.23176505E-02 0.12500000E+03</pdfrwt>
<pdfrwt beam="2">  1       21 0.36449725E-01 0.12500000E+03</pdfrwt>
<totfact> 0.68283775E+06</totfact>
</mgrwt>
</event>
<event>
 6      0 +1.3698540e+00 1.25000000e+02 7.54677100e-03 1.12640300e-01
       21 -1    0    0  502  501 +0.0000000000e+00 +0.0000000000e+00 +6.3772960174e+02 6.3772960174e+02 0.0000000000e+00 0.0000e+00 -1.0000e+00
       21 -1    0    0  501  502 -0.0000000000e+00 -0.0000000000e+00 -6.1252449147e+00 6.1252449147e+00 0.0000000000e+00 0.0000e+00 -1.0000e+00
       25  2    1    2    0    0 +0.0000000000e+00 +0.0000000000e+00 +6.3160435682e+02 6.4385484665e+02 1.2500000000e+02 0.0000e+00 0.0000e+00
      -15  1    3    3    0    0 -3.9938779384e+01 -3.3103868839e+01 +3.6884344696e+02 3.7247767494e+02 1.7770000000e+00 0.0000e+00 -1.0000e+00
       15  1    3    3    0    0 -1.1405338731e+00 -8.8506336674e+00 +3.7784218753e+01 3.8864372497e+01 1.7770000000e+00 0.0000e+00 -1.0000e+00
       22  1    3    3    0    0 +4.1079313257e+01 +4.1954502507e+01 +2.2497669109e+02 2.3251279920e+02 0.0000000000e+00 0.0000e+00 -1.0000e+00
<mgrwt>
<rscale>  2 0.12500000E+03</rscale>
<asrwt>0</asrwt>
<pdfrwt beam="1">  1       21 0.93783719E-01 0.12500000E+03</pdfrwt>
<pdfrwt beam="2">  1       21 0.90077175E-03 0.12500000E+03</pdfrwt>
<totfact> 0.35894616E+06</totfact>
</mgrwt>
</event>
<event>
 6      0 +1.3698540e+00 1.25000000e+02 7.54677100e-03 1.12640300e-01
       21 -1    0    0  502  501 +0.0000000000e+00 +0.0000000000e+00 +8.4498765288e+01 8.4498765288e+01 0.0000000000e+00 0.0000e+00 -1.0000e+00
       21 -1    0    0  501  502 -0.0000000000e+00 -0.0000000000e+00 -4.6228486141e+01 4.6228486141e+01 0.0000000000e+00 0.0000e+00 -1.0000e+00
       25  2    1    2    0    0 +0.0000000000e+00 +0.0000000000e+00 +3.8270279147e+01 1.3072725143e+02 1.2500000000e+02 0.0000e+00 0.0000e+00
      -15  1    3    3    0    0 -3.5879712937e+01 +1.4495042231e+01 -1.5420665071e+01 4.1694300449e+01 1.7770000000e+00 0.0000e+00 -1.0000e+00
       15  1    3    3    0    0 +4.1979842133e+01 -2.3515402961e+01 +1.7487757692e+01 5.1227538688e+01 1.7770000000e+00 0.0000e+00 -1.0000e+00
       22  1    3    3    0    0 -6.1001291967e+00 +9.0203607303e+00 +3.6203186525e+01 3.7805412291e+01 0.0000000000e+00 0.0000e+00 -1.0000e+00
<mgrwt>
<rscale>  2 0.12500000E+03</rscale>
<asrwt>0</asrwt>
<pdfrwt beam="1">  1       21 0.12426289E-01 0.12500000E+03</pdfrwt>
<pdfrwt beam="2">  1       21 0.67983068E-02 0.12500000E+03</pdfrwt>
<totfact> 0.87965479E+06</totfact>
</mgrwt>
</event>
<event>
 6      0 +1.3698540e+00 1.25000000e+02 7.54677100e-03 1.12640300e-01
       21 -1    0    0  502  501 +0.0000000000e+00 +0.0000000000e+00 +8.5406301399e+00 8.5406301399e+00 0.0000000000e+00 0.0000e+00 1.0000e+00
       21 -1    0    0  501  502 -0.0000000000e+00 -0.0000000000e+00 -4.5737257509e+02 4.5737257509e+02 0.0000000000e+00 0.0000e+00 1.0000e+00
       25  2    1    2    0    0 +0.0000000000e+00 +0.0000000000e+00 -4.4883194495e+02 4.6591320523e+02 1.2500000000e+02 0.0000e+00 0.0000e+00
      -15  1    3    3    0    0 -2.3437690855e+01 -5.1399094840e+00 -9.4990385036e+01 9.7990178081e+01 1.7770000000e+00 0.0000e+00 -1.0000e+00
       15  1    3    3    0    0 -1.1698663309e+01 +3.6869172215e+01 -6.8551950558e+01 7.8731964521e+01 1.7770000000e+00 0.0000e+00 -1.0000e+00
       22  1    3    3    0    0 +3.5136354164e+01 -3.1729262731e+01 -2.8528960935e+02 2.8919106263e+02 0.0000000000e+00 0.0000e+00 -1.0000e+00
<mgrwt>
<rscale>  2 0.12500000E+03</rscale>
<asrwt>0</asrwt>
<pdfrwt beam="1">  1       21 0.12559746E-02 0.12500000E+03</pdfrwt>
<pdfrwt beam="2">  1       21 0.67260693E-01 0.12500000E+03</pdfrwt>
<totfact> 0.47972465E+06</totfact>
</mgrwt>
</event>
<event>
 6      0 +1.3698540e+00 1.25000000e+02 7.54677100e-03 1.12640300e-01
       21 -1    0    0  502  501 +0.0000000000e+00 +0.0000000000e+00 +7.5043134127e+01 7.5043134127e+01 0.0000000000e+00 0.0000e+00 -1.0000e+00
       21 -1    0    0  501  502 -0.0000000000e+00 -0.0000000000e+00 -5.2053396296e+01 5.2053396296e+01 0.0000000000e+00 0.0000e+00 -1.0000e+00
       25  2    1    2    0    0 +0.0000000000e+00 +0.0000000000e+00 +2.2989737831e+01 1.2709653042e+02 1.2500000000e+02 0.0000e+00 0.0000e+00
      -15  1    3    3    0    0 -5.7290783308e+01 +9.3767986492e+00 -1.1736810226e+01 5.9254271139e+01 1.7770000000e+00 0.0000e+00 -1.0000e+00
       15  1    3    3    0    0 +5.7378734155e+01 -9.3828688668e+00 +3.4741069308e+01 6.7752911281e+01 1.7770000000e+00 0.0000e+00 -1.0000e+00
       22  1    3    3    0    0 -8.7950846764e-02 +6.0702175955e-03 -1.4521249845e-02 8.9348003253e-02 0.0000000000e+00 0.0000e+00 -1.0000e+00
<mgrwt>
<rscale>  2 0.12500000E+03</rscale>
<asrwt>0</asrwt>
<pdfrwt beam="1">  1       21 0.11035755E-01 0.12500000E+03</pdfrwt>
<pdfrwt beam="2">  1       21 0.76549112E-02 0.12500000E+03</pdfrwt>
<totfact> 0.88616422E+06</totfact>
</mgrwt>
</event>
<event>
 6      0 +1.3698540e+00 1.25000000e+02 7.54677100e-03 1.12640300e-01
       21 -1    0    0  502  501 +0.0000000000e+00 +0.0000000000e+00 +1.3486814254e+01 1.3486814254e+01 0.0000000000e+00 0.0000e+00 -1.0000e+00
       21 -1    0    0  501  502 -0.0000000000e+00 -0.0000000000e+00 -2.8963474445e+02 2.8963474445e+02 0.0000000000e+00 0.0000e+00 -1.0000e+00
       25  2    1    2    0    0 +0.0000000000e+00 +0.0000000000e+00 -2.7614793020e+02 3.0312155871e+02 1.2500000000e+02 0.0000e+00 0.0000e+00
      -15  1    3    3    0    0 +1.8802313597e+01 +5.1561234587e+01 -2.1039895050e+02 2.1744646240e+02 1.7770000000e+00 0.0000e+00 -1.0000e+00
       15  1    3    3    0    0 -1.8824050495e+01 -5.1473660350e+01 -6.5674836914e+01 8.5558310640e+01 1.7770000000e+00 0.0000e+00 -1.0000e+00
       22  1    3    3    0    0 +2.1736897955e-02 -8.7574236849e-02 -7.4142779702e-02 1.1678566467e-01 0.0000000000e+00 0.0000e+00 1.0000e+00
<mgrwt>
<rscale>  2 0.12500000E+03</rscale>
<asrwt>0</asrwt>
<pdfrwt beam="1">  1       21 0.19833549E-02 0.12500000E+03</pdfrwt>
<pdfrwt beam="2">  1       21 0.42593349E-01 0.12500000E+03</pdfrwt>
<totfact> 0.63592762E+06</totfact>
</mgrwt>
</event>
<event>
 6      0 +1.3698540e+00 1.25000000e+02 7.54677100e-03 1.12640300e-01
       21 -1    0    0  502  501 +0.0000000000e+00 +0.0000000000e+00 +3.2120078749e+02 3.2120078749e+02 0.0000000000e+00 0.0000e+00 -1.0000e+00
       21 -1    0    0  501  502 -0.0000000000e+00 -0.0000000000e+00 -1.2161396087e+01 1.2161396087e+01 0.0000000000e+00 0.0000e+00 -1.0000e+00
       25  2    1    2    0    0 +0.0000000000e+00 +0.0000000000e+00 +3.0903939141e+02 3.3336218358e+02 1.2500000000e+02 0.0000e+00 0.0000e+00
      -15  1    3    3    0    0 -5.4308316175e+01 +2.1936615786e+01 +2.1248920743e+02 2.2042102740e+02 1.7770000000e+00 0.0000e+00 -1.0000e+00
       15  1    3    3    0    0 +5.4308311501e+01 -2.1936614455e+01 +9.6550148053e+01 1.1294111992e+02 1.7770000000e+00 0.0000e+00 -1.0000e+00
       22  1    3    3    0    0 +4.6736029665e-06 -1.3303824459e-06 +3.5947368682e-05 3.6274313189e-05 0.0000000000e+00 0.0000e+00 1.0000e+00
<mgrwt>
<rscale>  2 0.12500000E+03</rscale>
<asrwt>0</asrwt>
<pdfrwt beam="1">  1       21 0.47235404E-01 0.12500000E+03</pdfrwt>
<pdfrwt beam="2">  1       21 0.17884408E-02 0.12500000E+03</pdfrwt>
<totfact> 0.60264655E+06</totfact>
</mgrwt>
</event>
<event>
 6      0 +1.3698540e+00 1.25000000e+02 7.54677100e-03 1.12640300e-01
       21 -1    0    0  502  501 +0.0000000000e+00 +0.0000000000e+00 +4.9013112389e+01 4.9013112389e+01 0.0000000000e+00 0.0000e+00 -1.0000e+00
       21 -1    0    0  501  502 -0.0000000000e+00 -0.0000000000e+00 -7.9698060572e+01 7.9698060572e+01 0.0000000000e+00 0.0000e+00 -1.0000e+00
       25  2    1    2    0    0 +0.0000000000e+00 +0.0000000000e+00 -3.0684948184e+01 1.2871117296e+02 1.2500000000e+02 0.0000e+00 0.0000e+00
      -15  1    3    3    0    0 -1.1708331598e+01 +3.0956156820e+01 -6.9895753452e+01 7.7355948404e+01 1.7770000000e+00 0.0000e+00 -1.0000e+00
       15  1    3    3    0    0 +1.1705624854e+01 -3.0964644901e+01 +3.9210387373e+01 5.1346305555e+01 1.7770000000e+00 0.0000e+00 -1.0000e+00
       22  1    3    3    0    0 +2.7067442244e-03 +8.4880813680e-03 +4.1789366575e-04 8.9190035723e-03 0.0000000000e+00 0.0000e+00 1.0000e+00
<mgrwt>
<rscale>  2 0.12500000E+03</rscale>
<asrwt>0</asrwt>
<pdfrwt beam="1">  1       21 0.72078107E-02 0.12500000E+03</pdfrwt>
<pdfrwt beam="2">  1       21 0.11720303E-01 0.12500000E+03</pdfrwt>
<totfact> 0.88331200E+06</totfact>
</mgrwt>
</event>
<event>
 6      0 +1.3698540e+00 1.25000000e+02 7.54677100e-03 1.12640300e-01
       21 -1    0    0  502  501 +0.0000000000e+00 +0.0000000000e+00 +3.9037418513e+02 3.9037418513e+02 0.0000000000e+00 0.0000e+00 -1.0000e+00
       21 -1    0    0  501  502 -0.0000000000e+00 -0.0000000000e+00 -1.0006424986e+01 1.0006424986e+01 0.0000000000e+00 0.0000e+00 -1.0000e+00
       25  2    1    2    0    0 +0.0000000000e+00 +0.0000000000e+00 +3.8036776014e+02 4.0038061011e+02 1.2500000000e+02 0.0000e+00 0.0000e+00
      -15  1    3    3    0    0 +5.1775520699e+01 +9.8571459061e+00 +8.2739776859e+01 9.8116748177e+01 1.7770000000e+00 0.0000e+00 -1.0000e+00
       15  1    3    3    0    0 -5.1775521059e+01 -9.8571449722e+00 +2.9762798163e+02 3.0226386001e+02 1.7770000000e+00 0.0000e+00 -1.0000e+00
       22  1    3    3    0    0 +3.5940053101e-07 -9.3393289781e-07 +1.6709273380e-06 1.9476646447e-06 0.0000000000e+00 0.0000e+00 1.0000e+00
<mgrwt>
<rscale>  2 0.12500000E+03</rscale>
<asrwt>0</asrwt>
<pdfrwt beam="1">  1       21 0.57407958E-01 0.12500000E+03</pdfrwt>
<pdfrwt beam="2">  1       21 0.14715334E-02 0.12500000E+03</pdfrwt>
<totfact> 0.53620778E+06</totfact>
</mgrwt>
</event>
<event>
 6      0 +1.3698540e+00 1.25000000e+02 7.54677100e-03 1.12640300e-01
       21 -1    0    0  502  501 +0.0000000000e+00 +0.0000000000e+00 +6.0646862342e+01 6.0646862342e+01 0.0000000000e+00 0.0000e+00 -1.0000e+00
       21 -1    0    0  501  502 -0.0000000000e+00 -0.0000000000e+00 -6.4409762503e+01 6.4409762503e+01 0.0000000000e+00 0.0000e+00 -1.0000e+00
       25  2    1    2    0    0 +0.0000000000e+00 +0.0000000000e+00 -3.7629001601e+00 1.2505662484e+02 1.2500000000e+02 0.0000e+00 0.0000e+00
      -15  1    3    3    0    0 -8.3045397908e+00 +2.7373731979e+01 +2.9631503387e+01 4.1224632267e+01 1.7770000000e+00 0.0000e+00 -1.0000e+00
       15  1    3    3    0    0 -8.3469485855e+00 +2.1724265474e+01 -1.8805482114e+01 2.9973640880e+01 1.7770000000e+00 0.0000e+00 -1.0000e+00
       22  1    3    3    0    0 +1.6651488376e+01 -4.9097997453e+01 -1.4588921432e+01 5.3858351698e+01 0.0000000000e+00 0.0000e+00 -1.0000e+00
<mgrwt>
<rscale>  2 0.12500000E+03</rscale>
<asrwt>0</asrwt>
<pdfrwt beam="1">  1       21 0.89186563E-02 0.12500000E+03</pdfrwt>
<pdfrwt beam="2">  1       21 0.94720238E-02 0.12500000E+03</pdfrwt>
<totfact> 0.88990263E+06</totfact>
</mgrwt>
</event>
<event>
 6      0 +1.3698540e+00 1.25000000e+02 7.54677100e-03 1.12640300e-01
       21 -1    0    0  502  501 +0.0000000000e+00 +0.0000000000e+00 +1.8226711168e+02 1.8226711168e+02 0.0000000000e+00 0.0000e+00 -1.0000e+00
       21 -1    0    0  501  502 -0.0000000000e+00 -0.0000000000e+00 -2.1431458281e+01 2.1431458281e+01 0.0000000000e+00 0.0000e+00 -1.0000e+00
       25  2    1    2    0    0 +0.0000000000e+00 +0.0000000000e+00 +1.6083565340e+02 2.0369856996e+02 1.2500000000e+02 0.0000e+00 0.0000e+00
      -15  1    3    3    0    0 -2.5893635542e+01 +4.5442977947e+00 +6.0401254310e+01 6.5898408594e+01 1.7770000000e+00 0.0000e+00 -1.0000e+00
       15  1    3    3    0    0 -1.6855016812e+01 -3.3819300643e+01 +6.4403962506e+01 7.4691798767e+01 1.7770000000e+00 0.0000e+00 -1.0000e+00
       22  1    3    3    0    0 +4.2748652353e+01 +2.9275002848e+01 +3.6030436588e+01 6.3108362604e+01 0.0000000000e+00 0.0000e+00 -1.0000e+00
<mgrwt>
<rscale>  2 0.12500000E+03</rscale>
<asrwt>0</asrwt>
<pdfrwt beam="1">  1       21 0.26803986E-01 0.12500000E+03</pdfrwt>
<pdfrwt beam="2">  1       21 0.31516851E-02 0.12500000E+03</pdfrwt>
<totfact> 0.76282690E+06</totfact>
</mgrwt>
</event>
<event>
 6      0 +1.3698540e+00 1.25000000e+02 7.54677100e-03 1.12640300e-01
       21 -1    0    0  502  501 +0.0000000000e+00 +0.0000000000e+00 +9.6494687732e+02 9.6494687732e+02 0.0000000000e+00 0.0000e+00 -1.0000e+00
       21 -1    0    0  501  502 -0.0000000000e+00 -0.0000000000e+00 -4.0481503094e+00 4.0481503094e+00 0.0000000000e+00 0.0000e+00 -1.0000e+00
       25  2    1    2    0    0 +0.0000000000e+00 +0.0000000000e+00 +9.6089872701e+02 9.6899502763e+02 1.2500000000e+02 0.0000e+00 0.0000e+00
      -15  1    3    3    0    0 -4.4602553016e+01 +3.9395728102e+01 +6.2787546748e+02 6.3069181976e+02 1.7770000000e+00 0.0000e+00 -1.0000e+00
       15  1    3    3    0    0 +4.4602553885e+01 -3.9395728210e+01 +3.3302325657e+02 3.3830320478e+02 1.7770000000e+00 0.0000e+00 -1.0000e+00
       22  1    3    3    0    0 -8.6898478806e-07 +1.0855130104e-07 +2.8882077416e-06 3.0180559812e-06 0.0000000000e+00 0.0000e+00 1.0000e+00
<mgrwt>
<rscale>  2 0.12500000E+03</rscale>
<asrwt>0</asrwt>
<pdfrwt beam="1">  1       21 0.14190379E+00 0.12500000E+03</pdfrwt>
<pdfrwt beam="2">  1       21 0.59531689E-03 0.12500000E+03</pdfrwt>
<totfact> 0.22130372E+06</totfact>
</mgrwt>
</event>
<event>
 6      0 +1.3698540e+00 1.25000000e+02 7.54677100e-03 1.12640300e-01
       21 -1    0    0  502  501 +0.0000000000e+00 +0.0000000000e+00 +1.1793381817e+01 1.1793381817e+01 0.0000000000e+00 0.0000e+00 -1.0000e+00
       21 -1    0    0  501  502 -0.0000000000e+00 -0.0000000000e+00 -3.3122390682e+02 3.3122390682e+02 0.0000000000e+00 0.0000e+00 -1.0000e+00
       25  2    1    2    0    0 +0.0000000000e+00 +0.0000000000e+00 -3.1943052501e+02 3.4301728864e+02 1.2500000000e+02 0.0000e+00 0.0000e+00
      -15  1    3    3    0    0 +1.3438077008e+01 -1.6332975086e+00 -2.0006361919e+01 2.4221102796e+01 1.7770000000e+00 0.0000e+00 -1.0000e+00
       15  1    3    3    0    0 -1.1255042115e+01 -3.5924217667e+01 -3.4121951213e+01 5.0839853182e+01 1.7770000000e+00 0.0000e+00 -1.0000e+00
       22  1    3    3    0    0 -2.1830348933e+00 +3.7557515175e+01 -2.6530221190e+02 2.6795633269e+02 0.0000000000e+00 0.0000e+00 -1.0000e+00
<mgrwt>
<rscale>  2 0.12500000E+03</rscale>
<asrwt>0</asrwt>
<pdfrwt beam="1">  1       21 0.17343206E-02 0.12500000E+03</pdfrwt>
<pdfrwt beam="2">  1       21 0.48709405E-01 0.12500000E+03</pdfrwt>
<totfact> 0.59249689E+06</totfact>
</mgrwt>
</event>
<event>
 6      0 +1.3698540e+00 1.25000000e+02 7.54677100e-03 1.12640300e-01
       21 -1    0    0  502  501 +0.0000000000e+00 +0.0000000000e+00 +1.7411335516e+02 1.7411335516e+02 0.0000000000e+00 0.0000e+00 -1.0000e+00
       21 -1    0    0  501  502 -0.0000000000e+00 -0.0000000000e+00 -2.2435096930e+01 2.2435096930e+01 0.0000000000e+00 0.0000e+00 -1.0000e+00
       25  2    1    2    0    0 +0.0000000000e+00 +0.0000000000e+00 +1.5167825823e+02 1.9654845210e+02 1.2500000000e+02 0.0000e+00 0.0000e+00
      -15  1    3    3    0    0 +5.9960697587e+01 -1.6421658503e+01 +8.3715531980e+01 1.0429000022e+02 1.7770000000e+00 0.0000e+00 1.0000e+00
       15  1    3    3    0    0 -5.9382727729e+01 +1.5682260682e+01 +6.7118645772e+01 9.0996219657e+01 1.7770000000e+00 0.0000e+00 1.0000e+00
       22  1    3    3    0    0 -5.7796985828e-01 +7.3939782082e-01 +8.4408046328e-01 1.2622321985e+00 0.0000000000e+00 0.0000e+00 1.0000e+00
<mgrwt>
<rscale>  2 0.12500000E+03</rscale>
<asrwt>0</asrwt>
<pdfrwt beam="1">  1       21 0.25604904E-01 0.12500000E+03</pdfrwt>
<pdfrwt beam="2">  1       21 0.32992791E-02 0.12500000E+03</pdfrwt>
<totfact> 0.77325678E+06</totfact>
</mgrwt>
</event>
<event>
 6      0 +1.3698540e+00 1.25000000e+02 7.54677100e-03 1.12640300e-01
       21 -1    0    0  502  501 +0.0000000000e+00 +0.0000000000e+00 +1.8682488975e+03 1.8682488975e+03 0.0000000000e+00 0.0000e+00 -1.0000e+00
       21 -1    0    0  501  502 -0.0000000000e+00 -0.0000000000e+00 -2.0908616648e+00 2.0908616648e+00 0.0000000000e+00 0.0000e+00 -1.0000e+00
       25  2    1    2    0    0 +0.0000000000e+00 +0.0000000000e+00 +1.8661580358e+03 1.8703397591e+03 1.2500000000e+02 0.0000e+00 0.0000e+00
      -15  1    3    3    0    0 +4.0236793502e+01 -2.6865944074e+01 +8.7384957975e+02 8.7518970758e+02 1.7770000000e+00 0.0000e+00 -1.0000e+00
       15  1    3    3    0    0 -1.8859268039e+01 -1.7295319100e+01 +3.9334131027e+02 3.9417679301e+02 1.7770000000e+00 0.0000e+00 -1.0000e+00
       22  1    3    3    0    0 -2.1377525463e+01 +4.4161263174e+01 +5.9896715241e+02 6.0097326515e+02 0.0000000000e+00 0.0000e+00 -1.0000e+00
<mgrwt>
<rscale>  2 0.12500000E+03</rscale>
<asrwt>0</asrwt>
<pdfrwt beam="1">  1       21 0.27474132E+00 0.12500000E+03</pdfrwt>
<pdfrwt beam="2">  1       21 0.30748096E-03 0.12500000E+03</pdfrwt>
<totfact> 0.64143270E+05</totfact>
</mgrwt>
</event>
<event>
 6      0 +1.3698540e+00 1.25000000e+02 7.54677100e-03 1.12640300e-01
       21 -1    0    0  502  501 +0.0000000000e+00 +0.0000000000e+00 +6.4287801943e+01 6.4287801943e+01 0.0000000000e+00 0.0000e+00 -1.0000e+00
       21 -1    0    0  501  502 -0.0000000000e+00 -0.0000000000e+00 -6.0761915666e+01 6.0761915666e+01 0.0000000000e+00 0.0000e+00 -1.0000e+00
       25  2    1    2    0    0 +0.0000000000e+00 +0.0000000000e+00 +3.5258862775e+00 1.2504971761e+02 1.2500000000e+02 0.0000e+00 0.0000e+00
      -15  1    3    3    0    0 +1.6550230792e+01 -3.7179451537e+01 -2.5558229608e+01 4.8089526777e+01 1.7770000000e+00 0.0000e+00 -1.0000e+00
       15  1    3    3    0    0 +1.5792101864e+01 +4.8347819139e+00 -7.6568771456e+00 1.8290737932e+01 1.7770000000e+00 0.0000e+00 -1.0000e+00
       22  1    3    3    0    0 -3.2342332657e+01 +3.2344669624e+01 +3.6740993032e+01 5.8669452901e+01 0.0000000000e+00 0.0000e+00 -1.0000e+00
<mgrwt>
<rscale>  2 0.12500000E+03</rscale>
<asrwt>0</asrwt>
<pdfrwt beam="1">  1       21 0.94540886E-02 0.12500000E+03</pdfrwt>
<pdfrwt beam="2">  1       21 0.89355758E-02 0.12500000E+03</pdfrwt>
<totfact> 0.88991726E+06</totfact>
</mgrwt>
</event>
<event>
 6      0 +1.3698540e+00 1.25000000e+02 7.54677100e-03 1.12640300e-01
       21 -1    0    0  502  501 +0.0000000000e+00 +0.0000000000e+00 +1.7787102783e+01 1.7787102783e+01 0.0000000000e+00 0.0000e+00 1.0000e+00
       21 -1    0    0  501  502 -0.0000000000e+00 -0.0000000000e+00 -2.1961136941e+02 2.1961136941e+02 0.0000000000e+00 0.0000e+00 1.0000e+00
       25  2    1    2    0    0 +0.0000000000e+00 +0.0000000000e+00 -2.0182426663e+02 2.3739847219e+02 1.2500000000e+02 0.0000e+00 0.0000e+00
      -15  1    3    3    0    0 +6.4381112988e+00 -4.4199384414e+01 -7.7646427154e+01 8.9594420800e+01 1.7770000000e+00 0.0000e+00 -1.0000e+00
       15  1    3    3    0    0 +6.8590761716e-01 -1.6553073362e+01 -1.3905196621e+01 2.1702233274e+01 1.7770000000e+00 0.0000e+00 -1.0000e+00
       22  1    3    3    0    0 -7.1240189159e+00 +6.0752457776e+01 -1.1027264287e+02 1.2610181814e+02 0.0000000000e+00 0.0000e+00 -1.0000e+00
<mgrwt>
<rscale>  2 0.12500000E+03</rscale>
<asrwt>0</asrwt>
<pdfrwt beam="1">  1       21 0.26157508E-02 0.12500000E+03</pdfrwt>
<pdfrwt beam="2">  1       21 0.32295785E-01 0.12500000E+03</pdfrwt>
<totfact> 0.71650750E+06</totfact>
</mgrwt>
</event>
<event>
 6      0 +1.3698540e+00 1.25000000e+02 7.54677100e-03 1.12640300e-01
       21 -1    0    0  502  501 +0.0000000000e+00 +0.0000000000e+00 +3.6190286398e+02 3.6190286398e+02 0.0000000000e+00 0.0000e+00 1.0000e+00
       21 -1    0    0  501  502 -0.0000000000e+00 -0.0000000000e+00 -1.0793642131e+01 1.0793642131e+01 0.0000000000e+00 0.0000e+00 1.0000e+00
       25  2    1    2    0    0 +0.0000000000e+00 +0.0000000000e+00 +3.5110922185e+02 3.7269650611e+02 1.2500000000e+02 0.0000e+00 0.0000e+00
      -15  1    3    3    0    0 +5.5814660808e+01 +1.8427954446e+01 +2.3847819445e+02 2.4562140140e+02 1.7770000000e+00 0.0000e+00 1.0000e+00
       15  1    3    3    0    0 -5.5278768791e+01 -1.8391213075e+01 +1.1187970242e+02 1.2615151422e+02 1.7770000000e+00 0.0000e+00 1.0000e+00
       22  1    3    3    0    0 -5.3589201698e-01 -3.6741370815e-02 +7.5132498979e-01 9.2359050584e-01 0.0000000000e+00 0.0000e+00 1.0000e+00
<mgrwt>
<rscale>  2 0.12500000E+03</rscale>
<asrwt>0</asrwt>
<pdfrwt beam="1">  1       21 0.53221001E-01 0.12500000E+03</pdfrwt>
<pdfrwt beam="2">  1       21 0.15873005E-02 0.12500000E+03</pdfrwt>
<totfact> 0.56255265E+06</totfact>
</mgrwt>
</event>
<event>
 6      0 +1.3698540e+00 1.25000000e+02 7.54677100e-03 1.12640300e-01
       21 -1    0    0  502  501 +0.0000000000e+00 +0.0000000000e+00 +6.9701214966e+00 6.9701214966e+00 0.0000000000e+00 0.0000e+00 -1.0000e+00
       21 -1    0    0  501  502 -0.0000000000e+00 -0.0000000000e+00 -5.6042782065e+02 5.6042782065e+02 0.0000000000e+00 0.0000e+00 -1.0000e+00
       25  2    1    2    0    0 +0.0000000000e+00 +0.0000000000e+00 -5.5345769915e+02 5.6739794215e+02 1.2500000000e+02 0.0000e+00 0.0000e+00
      -15  1    3    3    0    0 +2.5606724471e+01 -1.8773744412e+01 -2.1846217100e+02 2.2076466136e+02 1.7770000000e+00 0.0000e+00 -1.0000e+00
       15  1    3    3    0    0 -2.9007969630e+01 -1.4088722618e+01 -2.8426094458e+02 2.8608984035e+02 1.7770000000e+00 0.0000e+00 -1.0000e+00
       22  1    3    3    0    0 +3.4012451597e+00 +3.2862467030e+01 -5.0734583434e+01 6.0543440306e+01 0.0000000000e+00 0.0000e+00 -1.0000e+00
<mgrwt>
<rscale>  2 0.12500000E+03</rscale>
<asrwt>0</asrwt>
<pdfrwt beam="1">  1       21 0.10250176E-02 0.12500000E+03</pdfrwt>
<pdfrwt beam="2">  1       21 0.82415878E-01 0.12500000E+03</pdfrwt>
<totfact> 0.40635604E+06</totfact>
</mgrwt>
</event>
<event>
 6      0 +1.3698540e+00 1.25000000e+02 7.54677100e-03 1.12640300e-01
       21 -1    0    0  502  501 +0.0000000000e+00 +0.0000000000e+00 +3.4638710538e+02 3.4638710538e+02 0.0000000000e+00 0.0000e+00 -1.0000e+00
       21 -1    0    0  501  502 -0.0000000000e+00 -0.0000000000e+00 -1.1277123020e+01 1.1277123020e+01 0.0000000000e+00 0.0000e+00 -1.0000e+00
       25  2    1    2    0    0 +0.0000000000e+00 +0.0000000000e+00 +3.3510998236e+02 3.5766422840e+02 1.2500000000e+02 0.0000e+00 0.0000e+00
      -15  1    3    3    0    0 +2.4922691951e+01 +2.3361515569e+01 +7.7151099528e+01 8.4394021537e+01 1.7770000000e+00 0.0000e+00 -1.0000e+00
       15  1    3    3    0    0 +1.3972764186e+01 +5.4565202259e+00 +5.2882397831e+00 1.6004216974e+01 1.7770000000e+00 0.0000e+00 -1.0000e+00
       22  1    3    3    0    0 -3.8895456137e+01 -2.8818035794e+01 +2.5267064305e+02 2.5726598989e+02 0.0000000000e+00 0.0000e+00 -1.0000e+00
<mgrwt>
<rscale>  2 0.12500000E+03</rscale>
<asrwt>0</asrwt>
<pdfrwt beam="1">  1       21 0.50939273E-01 0.12500000E+03</pdfrwt>
<pdfrwt beam="2">  1       21 0.16584007E-02 0.12500000E+03</pdfrwt>
<totfact> 0.57749843E+06</totfact>
</mgrwt>
</event>
<event>
 6      0 +1.3698540e+00 1.25000000e+02 7.54677100e-03 1.12640300e-01
       21 -1    0    0  502  501 +0.0000000000e+00 +0.0000000000e+00 +1.1401644459e+02 1.1401644459e+02 0.0000000000e+00 0.0000e+00 1.0000e+00
       21 -1    0    0  501  502 -0.0000000000e+00 -0.0000000000e+00 -3.4260408787e+01 3.4260408787e+01 0.0000000000e+00 0.0000e+00 1.0000e+00
       25  2    1    2    0    0 +0.0000000000e+00 +0.0000000000e+00 +7.9756035799e+01 1.4827685337e+02 1.2500000000e+02 0.0000e+00 0.0000e+00
      -15  1    3    3    0    0 +3.5713804392e+01 +2.4405367659e+01 +7.3331521846e+00 4.3909345756e+01 1.7770000000e+00 0.0000e+00 -1.0000e+00
       15  1    3    3    0    0 -4.3248774465e+00 +4.4123719645e-01 -1.0931791482e+01 1.1897943067e+01 1.7770000000e+00 0.0000e+00 -1.0000e+00
       22  1    3    3    0    0 -3.1388926945e+01 -2.4846604856e+01 +8.3354675100e+01 9.2469564553e+01 0.0000000000e+00 0.0000e+00 -1.0000e+00
<mgrwt>
<rscale>  2 0.12500000E+03</rscale>
<asrwt>0</asrwt>
<pdfrwt beam="1">  1       21 0.16767124E-01 0.12500000E+03</pdfrwt>
<pdfrwt beam="2">  1       21 0.50382954E-02 0.12500000E+03</pdfrwt>
<totfact> 0.84915596E+06</totfact>
</mgrwt>
</event>
<event>
 6      0 +1.3698540e+00 1.25000000e+02 7.54677100e-03 1.12640300e-01
       21 -1    0    0  502  501 +0.0000000000e+00 +0.0000000000e+00 +3.4757337934e+02 3.4757337934e+02 0.0000000000e+00 0.0000e+00 1.0000e+00
       21 -1    0    0  501  502 -0.0000000000e+00 -0.0000000000e+00 -1.1238634004e+01 1.1238634004e+01 0.0000000000e+00 0.0000e+00 1.0000e+00
       25  2    1    2    0    0 +0.0000000000e+00 +0.0000000000e+00 +3.3633474534e+02 3.5881201335e+02 1.2500000000e+02 0.0000e+00 0.0000e+00
      -15  1    3    3    0    0 -7.7370903695e+00 -3.7807153954e+01 +2.7138298783e+01 4.7211105127e+01 1.7770000000e+00 0.0000e+00 1.0000e+00
       15  1    3    3    0    0 +7.7320172949e+00 +3.7802781555e+01 +3.0907698837e+02 3.1148126245e+02 1.7770000000e+00 0.0000e+00 1.0000e+00
       22  1    3    3    0    0 +5.0730746472e-03 +4.3723992289e-03 +1.1945816606e-01 1.1964575797e-01 0.0000000000e+00 0.0000e+00 -1.0000e+00
<mgrwt>
<rscale>  2 0.12500000E+03</rscale>
<asrwt>0</asrwt>
<pdfrwt beam="1">  1       21 0.51113725E-01 0.12500000E+03</pdfrwt>
<pdfrwt beam="2">  1       21 0.16527405E-02 0.12500000E+03</pdfrwt>
<totfact> 0.57634179E+06</totfact>
</mgrwt>
</event>
<event>
 6      0 +1.3698540e+00 1.25000000e+02 7.54677100e-03 1.12640300e-01
       21 -1    0    0  502  501 +0.0000000000e+00 +0.0000000000e+00 +1.7850980398e+02 1.7850980398e+02 0.0000000000e+00 0.0000e+00 -1.0000e+00
       21 -1    0    0  501  502 -0.0000000000e+00 -0.0000000000e+00 -2.1882551618e+01 2.1882551618e+01 0.0000000000e+00 0.0000e+00 -1.0000e+00
       25  2    1    2    0    0 +0.0000000000e+00 +0.0000000000e+00 +1.5662725236e+02 2.0039235560e+02 1.2500000000e+02 0.0000e+00 0.0000e+00
      -15  1    3    3    0    0 -5.9476251237e+01 +1.7386449001e+01 +8.8457660016e+01 1.0801679691e+02 1.7770000000e+00 0.0000e+00 -1.0000e+00
       15  1    3    3    0    0 +5.9643207582e+01 -1.7430753990e+01 +6.7931829117e+01 9.2081673157e+01 1.7770000000e+00 0.0000e+00 -1.0000e+00
       22  1    3    3    0    0 -1.6695634498e-01 +4.4304988394e-02 +2.3776322116e-01 2.9388552612e-01 0.0000000000e+00 0.0000e+00 1.0000e+00
<mgrwt>
<rscale>  2 0.12500000E+03</rscale>
<asrwt>0</asrwt>
<pdfrwt beam="1">  1       21 0.26251441E-01 0.12500000E+03</pdfrwt>
<pdfrwt beam="2">  1       21 0.32180224E-02 0.12500000E+03</pdfrwt>
<totfact> 0.76761664E+06</totfact>
</mgrwt>
</event>
<event>
 6      0 +1.3698540e+00 1.25000000e+02 7.54677100e-03 1.12640300e-01
       21 -1    0    0  502  501 +0.0000000000e+00 +0.0000000000e+00 +5.5227439514e+01 5.5227439514e+01 0.0000000000e+00 0.0000e+00 -1.0000e+00
       21 -1    0    0  501  502 -0.0000000000e+00 -0.0000000000e+00 -7.0730239070e+01 7.0730239070e+01 0.0000000000e+00 0.0000e+00 -1.0000e+00
       25  2    1    2    0    0 +0.0000000000e+00 +0.0000000000e+00 -1.5502799556e+01 1.2595767858e+02 1.2500000000e+02 0.0000e+00 0.0000e+00
      -15  1    3    3    0    0 -2.4966807414e+01 -2.6201725762e+01 -1.3566983001e+01 3.8692281686e+01 1.7770000000e+00 0.0000e+00 -1.0000e+00
       15  1    3    3    0    0 +1.1233916719e+01 +1.7450651141e+01 -4.0423445185e+01 4.5474594663e+01 1.7770000000e+00 0.0000e+00 -1.0000e+00
       22  1    3    3    0    0 +1.3732890696e+01 +8.7510746209e+00 +3.8487628629e+01 4.1790802234e+01 0.0000000000e+00 0.0000e+00 -1.0000e+00
<mgrwt>
<rscale>  2 0.12500000E+03</rscale>
<asrwt>0</asrwt>
<pdfrwt beam="1">  1       21 0.81216823E-02 0.12500000E+03</pdfrwt>
<pdfrwt beam="2">  1       21 0.10401506E-01 0.12500000E+03</pdfrwt>
<totfact> 0.88819426E+06</totfact>
</mgrwt>
</event>
<event>
 6      0 +1.3698540e+00 1.25000000e+02 7.54677100e-03 1.12640300e-01
       21 -1    0    0  502  501 +0.0000000000e+00 +0.0000000000e+00 +3.0397769579e+02 3.0397769579e+02 0.0000000000e+00 0.0000e+00 1.0000e+00
       21 -1    0    0  501  502 -0.0000000000e+00 -0.0000000000e+00 -1.2850449405e+01 1.2850449405e+01 0.0000000000e+00 0.0000e+00 1.0000e+00
       25  2    1    2    0    0 +0.0000000000e+00 +0.0000000000e+00 +2.9112724638e+02 3.1682814519e+02 1.2500000000e+02 0.0000e+00 0.0000e+00
      -15  1    3    3    0    0 +2.6157348569e+01 +8.5404824266e-01 +6.5891774334e+01 7.0921223456e+01 1.7770000000e+00 0.0000e+00 -1.0000e+00
       15  1    3    3    0    0 +5.2754539617e+00 -2.6038761839e+00 -8.2618410114e+00 1.0296908837e+01 1.7770000000e+00 0.0000e+00 -1.0000e+00
       22  1    3    3    0    0 -3.1432802531e+01 +1.7498279412e+00 +2.3349731306e+02 2.3561001290e+02 0.0000000000e+00 0.0000e+00 -1.0000e+00
<mgrwt>
<rscale>  2 0.12500000E+03</rscale>
<asrwt>0</asrwt>
<pdfrwt beam="1">  1       21 0.44702598E-01 0.12500000E+03</pdfrwt>
<pdfrwt beam="2">  1       21 0.18897722E-02 0.12500000E+03</pdfrwt>
<totfact> 0.62055049E+06</totfact>
</mgrwt>
</event>
<event>
 6      0 +1.3698540e+00 1.25000000e+02 7.54677100e-03 1.12640300e-01
       21 -1    0    0  502  501 +0.0000000000e+00 +0.0000000000e+00 +1.5533896469e+02 1.5533896469e+02 0.0000000000e+00 0.0000e+00 1.0000e+00
       21 -1    0    0  501  502 -0.0000000000e+00 -0.0000000000e+00 -2.5146620538e+01 2.5146620538e+01 0.0000000000e+00 0.0000e+00 1.0000e+00
       25  2    1    2    0    0 +0.0000000000e+00 +0.0000000000e+00 +1.3019234416e+02 1.8048558523e+02 1.2500000000e+02 0.0000e+00 0.0000e+00
      -15  1    3    3    0    0 +2.7475840967e+01 -1.8770071139e+00 +8.6056218019e+00 2.8907774874e+01 1.7770000000e+00 0.0000e+00 -1.0000e+00
       15  1    3    3    0    0 -1.0272165353e+01 -2.5163972255e+00 -1.2414641039e+01 1.6405202747e+01 1.7770000000e+00 0.0000e+00 -1.0000e+00
       22  1    3    3    0    0 -1.7203675614e+01 +4.3934043394e+00 +1.3400136341e+02 1.3517260762e+02 0.0000000000e+00 0.0000e+00 -1.0000e+00
<mgrwt>
<rscale>  2 0.12500000E+03</rscale>
<asrwt>0</asrwt>
<pdfrwt beam="1">  1       21 0.22843965E-01 0.12500000E+03</pdfrwt>
<pdfrwt beam="2">  1       21 0.36980325E-02 0.12500000E+03</pdfrwt>
<totfact> 0.79732122E+06</totfact>
</mgrwt>
</event>
<event>
 6      0 +1.3698540e+00 1.25000000e+02 7.54677100e-03 1.12640300e-01
       21 -1    0    0  502  501 +0.0000000000e+00 +0.0000000000e+00 +3.9181597070e+02 3.9181597070e+02 0.0000000000e+00 0.0000e+00 1.0000e+00
       21 -1    0    0  501  502 -0.0000000000e+00 -0.0000000000e+00 -9.9696038246e+00 9.9696038246e+00 0.0000000000e+00 0.0000e+00 1.0000e+00
       25  2    1    2    0    0 +0.0000000000e+00 +0.0000000000e+00 +3.8184636687e+02 4.0178557452e+02 1.2500000000e+02 0.0000e+00 0.0000e+00
      -15  1    3    3    0    0 +1.6071895503e+01 -2.8124283795e+01 +2.9590563378e+02 2.9767865727e+02 1.7770000000e+00 0.0000e+00 -1.0000e+00
       15  1    3    3    0    0 +1.8726949957e+00 -1.2952094096e+01 +2.7007090300e+01 3.0063339527e+01 1.7770000000e+00 0.0000e+00 -1.0000e+00
       22  1    3    3    0    0 -1.7944590499e+01 +4.1076377892e+01 +5.8933642783e+01 7.4043577712e+01 0.0000000000e+00 0.0000e+00 -1.0000e+00
<mgrwt>
<rscale>  2 0.12500000E+03</rscale>
<asrwt>0</asrwt>
<pdfrwt beam="1">  1       21 0.57619985E-01 0.12500000E+03</pdfrwt>
<pdfrwt beam="2">  1       21 0.14661185E-02 0.12500000E+03</pdfrwt>
<totfact> 0.53491307E+06</totfact>
</mgrwt>
</event>
<event>
 6      0 +1.3698540e+00 1.25000000e+02 7.54677100e-03 1.12640300e-01
       21 -1    0    0  502  501 +0.0000000000e+00 +0.0000000000e+00 +1.4421807410e+03 1.4421807410e+03 0.0000000000e+00 0.0000e+00 1.0000e+00
       21 -1    0    0  501  502 -0.0000000000e+00 -0.0000000000e+00 -2.7085717406e+00 2.7085717406e+00 0.0000000000e+00 0.0000e+00 1.0000e+00
       25  2    1    2    0    0 +0.0000000000e+00 +0.0000000000e+00 +1.4394721693e+03 1.4448893128e+03 1.2500000000e+02 0.0000e+00 0.0000e+00
      -15  1    3    3    0    0 +6.1784067859e+01 -4.7414303754e+00 +7.8466903494e+02 7.8711397162e+02 1.7770000000e+00 0.0000e+00 -1.0000e+00
       15  1    3    3    0    0 -1.4841829564e+01 +1.1659602542e+00 +1.9169246084e+02 1.9227791512e+02 1.7770000000e+00 0.0000e+00 -1.0000e+00
       22  1    3    3    0    0 -4.6942238295e+01 +3.5754701212e+00 +4.6311067100e+02 4.6549742353e+02 0.0000000000e+00 0.0000e+00 -1.0000e+00
<mgrwt>
<rscale>  2 0.12500000E+03</rscale>
<asrwt>0</asrwt>
<pdfrwt beam="1">  1       21 0.21208487E+00 0.12500000E+03</pdfrwt>
<pdfrwt beam="2">  1       21 0.39832038E-03 0.12500000E+03</pdfrwt>
<totfact> 0.11445092E+06</totfact>
</mgrwt>
</event>
<event>
 6      0 +1.3698540e+00 1.25000000e+02 7.54677100e-03 1.12640300e-01
       21 -1    0    0  502  501 +0.0000000000e+00 +0.0000000000e+00 +1.8269088661e+01 1.8269088661e+01 0.0000000000e+00 0.0000e+00 1.0000e+00
       21 -1    0    0  501  502 -0.0000000000e+00 -0.0000000000e+00 -2.1381745266e+02 2.1381745266e+02 0.0000000000e+00 0.0000e+00 1.0000e+00
       25  2    1    2    0    0 +0.0000000000e+00 +0.0000000000e+00 -1.9554836400e+02 2.3208654133e+02 1.2500000000e+02 0.0000e+00 0.0000e+00
      -15  1    3    3    0    0 -1.5089120786e+01 +2.9700446761e+01 -6.6605130128e+01 7.4492947265e+01 1.7770000000e+00 0.0000e+00 -1.0000e+00
       15  1    3    3    0    0 +4.2098262386e+01 -8.4224546619e+00 -1.1053281353e+02 1.1859115496e+02 1.7770000000e+00 0.0000e+00 -1.0000e+00
       22  1    3    3    0    0 -2.7009141600e+01 -2.1277992099e+01 -1.8410420317e+01 3.9002439078e+01 0.0000000000e+00 0.0000e+00 -1.0000e+00
<mgrwt>
<rscale>  2 0.12500000E+03</rscale>
<asrwt>0</asrwt>
<pdfrwt beam="1">  1       21 0.26866308E-02 0.12500000E+03</pdfrwt>
<pdfrwt beam="2">  1       21 0.31443742E-01 0.12500000E+03</pdfrwt>
<totfact> 0.72357945E+06</totfact>
</mgrwt>
</event>
<event>
 6      0 +1.3698540e+00 1.25000000e+02 7.54677100e-03 1.12640300e-01
       21 -1    0    0  502  501 +0.0000000000e+00 +0.0000000000e+00 +4.9035344294e+02 4.9035344294e+02 0.0000000000e+00 0.0000e+00 -1.0000e+00
       21 -1    0    0  501  502 -0.0000000000e+00 -0.0000000000e+00 -7.9661926641e+00 7.9661926641e+00 0.0000000000e+00 0.0000e+00 -1.0000e+00
       25  2    1    2    0    0 +0.0000000000e+00 +0.0000000000e+00 +4.8238725028e+02 4.9831963561e+02 1.2500000000e+02 0.0000e+00 0.0000e+00
      -15  1    3    3    0    0 -1.6779502019e+01 +1.2442340625e+01 +7.2529208691e+01 7.5498393165e+01 1.7770000000e+00 0.0000e+00 -1.0000e+00
       15  1    3    3    0    0 -4.2246112333e+01 -4.5540967775e-01 +1.3619293399e+02 1.4260650196e+02 1.7770000000e+00 0.0000e+00 -1.0000e+00
       22  1    3    3    0    0 +5.9025614352e+01 -1.1986930947e+01 +2.7366510757e+02 2.8021474045e+02 0.0000000000e+00 0.0000e+00 -1.0000e+00
<mgrwt>
<rscale>  2 0.12500000E+03</rscale>
<asrwt>0</asrwt>
<pdfrwt beam="1">  1       21 0.72110780E-01 0.12500000E+03</pdfrwt>
<pdfrwt beam="2">  1       21 0.11714993E-02 0.12500000E+03</pdfrwt>
<totfact> 0.45451186E+06</totfact>
</mgrwt>
</event>
<event>
 6      0 +1.3698540e+00 1.25000000e+02 7.54677100e-03 1.12640300e-01
       21 -1    0    0  502  501 +0.0000000000e+00 +0.0000000000e+00 +4.2188329520e+02 4.2188329520e+02 0.0000000000e+00 0.0000e+00 -1.0000e+00
       21 -1    0    0  501  502 -0.0000000000e+00 -0.0000000000e+00 -9.2590772008e+00 9.2590772008e+00 0.0000000000e+00 0.0000e+00 -1.0000e+00
       25  2    1    2    0    0 +0.0000000000e+00 +0.0000000000e+00 +4.1262421800e+02 4.3114237240e+02 1.2500000000e+02 0.0000e+00 0.0000e+00
      -15  1    3    3    0    0 +4.4571111782e+01 -2.8720822970e+01 +3.2027066864e+02 3.2463506988e+02 1.7770000000e+00 0.0000e+00 1.0000e+00
       15  1    3    3    0    0 -4.4571099543e+01 +2.8720815824e+01 +9.2353526142e+01 1.0650727532e+02 1.7770000000e+00 0.0000e+00 1.0000e+00
       22  1    3    3    0    0 -1.2239027474e-05 +7.1453136973e-06 +2.3235196988e-05 2.7216239278e-05 0.0000000000e+00 0.0000e+00 1.0000e+00
<mgrwt>
<rscale>  2 0.12500000E+03</rscale>
<asrwt>0</asrwt>
<pdfrwt beam="1">  1       21 0.62041648E-01 0.12500000E+03</pdfrwt>
<pdfrwt beam="2">  1       21 0.13616293E-02 0.12500000E+03</pdfrwt>
<totfact> 0.50873739E+06</totfact>
</mgrwt>
</event>
<event>
 6      0 +1.3698540e+00 1.25000000e+02 7.54677100e-03 1.12640300e-01
       21 -1    0    0  502  501 +0.0000000000e+00 +0.0000000000e+00 +4.0810780868e+01 4.0810780868e+01 0.0000000000e+00 0.0000e+00 -1.0000e+00
       21 -1    0    0  501  502 -0.0000000000e+00 -0.0000000000e+00 -9.5716129828e+01 9.5716129828e+01 0.0000000000e+00 0.0000e+00 -1.0000e+00
       25  2    1    2    0    0 +0.0000000000e+00 +0.0000000000e+00 -5.4905348960e+01 1.3652691070e+02 1.2500000000e+02 0.0000e+00 0.0000e+00
      -15  1    3    3    0    0 -2.7656495216e+00 -4.0867331739e+01 -6.6162693981e+01 7.7836029090e+01 1.7770000000e+00 0.0000e+00 -1.0000e+00
       15  1    3    3    0    0 -3.3697428285e-01 +4.4186727782e+01 -2.4087267630e+00 4.4289278131e+01 1.7770000000e+00 0.0000e+00 -1.0000e+00
       22  1    3    3    0    0 +3.1026238044e+00 -3.3193960437e+00 +1.3666071786e+01 1.4401603475e+01 0.0000000000e+00 0.0000e+00 -1.0000e+00
<mgrwt>
<rscale>  2 0.12500000E+03</rscale>
<asrwt>0</asrwt>
<pdfrwt beam="1">  1       21 0.60015856E-02 0.12500000E+03</pdfrwt>
<pdfrwt beam="2">  1       21 0.14075901E-01 0.12500000E+03</pdfrwt>
<totfact> 0.86939976E+06</totfact>
</mgrwt>
</event>
<event>
 6      0 +1.3698540e+00 1.25000000e+02 7.54677100e-03 1.12640300e-01
       21 -1    0    0  502  501 +0.0000000000e+00 +0.0000000000e+00 +1.5319276861e+01 1.5319276861e+01 0.0000000000e+00 0.0000e+00 1.0000e+00
       21 -1    0    0  501  502 -0.0000000000e+00 -0.0000000000e+00 -2.5498919012e+02 2.5498919012e+02 0.0000000000e+00 0.0000e+00 1.0000e+00
       25  2    1    2    0    0 +0.0000000000e+00 +0.0000000000e+00 -2.3966991326e+02 2.7030846698e+02 1.2500000000e+02 0.0000e+00 0.0000e+00
      -15  1    3    3    0    0 -2.1887570210e+01 +1.3170309853e+00 -8.4290007547e+01 8.7113508721e+01 1.7770000000e+00 0.0000e+00 -1.0000e+00
       15  1    3    3    0    0 -2.5642367773e+01 +2.9405703061e+01 -7.9058056033e+01 8.8179137840e+01 1.7770000000e+00 0.0000e+00 -1.0000e+00
       22  1    3    3    0    0 +4.7529937983e+01 -3.0722734046e+01 -7.6321849687e+01 9.5015820428e+01 0.0000000000e+00 0.0000e+00 -1.0000e+00
<mgrwt>
<rscale>  2 0.12500000E+03</rscale>
<asrwt>0</asrwt>
<pdfrwt beam="1">  1       21 0.22528349E-02 0.12500000E+03</pdfrwt>
<pdfrwt beam="2">  1       21 0.37498409E-01 0.12500000E+03</pdfrwt>
<totfact> 0.67460670E+06</totfact>
</mgrwt>
</event>
<event>
 6      0 +1.3698540e+00 1.25000000e+02 7.54677100e-03 1.12640300e-01
       21 -1    0    0  502  501 +0.0000000000e+00 +0.0000000000e+00 +2.8291936611e+02 2.8291936611e+02 0.0000000000e+00 0.0000e+00 -1.0000e+00
       21 -1    0    0  501  502 -0.0000000000e+00 -0.0000000000e+00 -1.3806937481e+01 1.3806937481e+01 0.0000000000e+00 0.0000e+00 -1.0000e+00
       25  2    1    2    0    0 +0.0000000000e+00 +0.0000000000e+00 +2.6911242863e+02 2.9672630359e+02 1.2500000000e+02 0.0000e+00 0.0000e+00
      -15  1    3    3    0    0 -8.3226431009e+00 -3.2964626635e+01 +2.9584612338e+01 4.5103658538e+01 1.7770000000e+00 0.0000e+00 -1.0000e+00
       15  1    3    3    0    0 +2.0530228747e+01 -1.3874282069e+01 +4.7689061273e+01 5.3771649496e+01 1.7770000000e+00 0.0000e+00 -1.0000e+00
       22  1    3    3    0    0 -1.2207585646e+01 +4.6838908704e+01 +1.9183875503e+02 1.9785099557e+02 0.0000000000e+00 0.0000e+00 -1.0000e+00
<mgrwt>
<rscale>  2 0.12500000E+03</rscale>
<asrwt>0</asrwt>
<pdfrwt beam="1">  1       21 0.41605785E-01 0.12500000E+03</pdfrwt>
<pdfrwt beam="2">  1       21 0.20304322E-02 0.12500000E+03</pdfrwt>
<totfact> 0.64327458E+06</totfact>
</mgrwt>
</event>
<event>
 6      0 +1.3698540e+00 1.25000000e+02 7.54677100e-03 1.12640300e-01
       21 -1    0    0  502  501 +0.0000000000e+00 +0.0000000000e+00 +2.0821506563e+01 2.0821506563e+01 0.0000000000e+00 0.0000e+00 1.0000e+00
       21 -1    0    0  501  502 -0.0000000000e+00 -0.0000000000e+00 -1.8760650139e+02 1.8760650139e+02 0.0000000000e+00 0.0000e+00 1.0000e+00
       25  2    1    2    0    0 +0.0000000000e+00 +0.0000000000e+00 -1.6678499483e+02 2.0842800795e+02 1.2500000000e+02 0.0000e+00 0.0000e+00
      -15  1    3    3    0    0 +3.8421897812e+01 +4.7993611060e+01 -1.0191967390e+02 1.1903951693e+02 1.7770000000e+00 0.0000e+00 1.0000e+00
       15  1    3    3    0    0 -3.8421426628e+01 -4.7993366575e+01 -6.4864701711e+01 8.9387675417e+01 1.7770000000e+00 0.0000e+00 1.0000e+00
       22  1    3    3    0    0 -4.7118375312e-04 -2.4448517905e-04 -6.1923131504e-04 8.1561912282e-04 0.0000000000e+00 0.0000e+00 -1.0000e+00
<mgrwt>
<rscale>  2 0.12500000E+03</rscale>
<asrwt>0</asrwt>
<pdfrwt beam="1">  1       21 0.30619863E-02 0.12500000E+03</pdfrwt>
<pdfrwt beam="2">  1       21 0.27589191E-01 0.12500000E+03</pdfrwt>
<totfact> 0.75606736E+06</totfact>
</mgrwt>
</event>
<event>
 6      0 +1.3698540e+00 1.25000000e+02 7.54677100e-03 1.12640300e-01
       21 -1    0    0  502  501 +0.0000000000e+00 +0.0000000000e+00 +2.7255093079e+02 2.7255093079e+02 0.0000000000e+00 0.0000e+00 -1.0000e+00
       21 -1    0    0  501  502 -0.0000000000e+00 -0.0000000000e+00 -1.4332183672e+01 1.4332183672e+01 0.0000000000e+00 0.0000e+00 -1.0000e+00
       25  2    1    2    0    0 +0.0000000000e+00 +0.0000000000e+00 +2.5821874712e+02 2.8688311446e+02 1.2500000000e+02 0.0000e+00 0.0000e+00
      -15  1    3    3    0    0 +1.0082900225e+00 -3.8087349960e+00 -1.0712663579e+01 1.1551709875e+01 1.7770000000e+00 0.0000e+00 -1.0000e+00
       15  1    3    3    0    0 +2.7569731076e+01 +4.9460282843e+00 +9.4818169416e+01 9.8884762465e+01 1.7770000000e+00 0.0000e+00 -1.0000e+00
       22  1    3    3    0    0 -2.8578021099e+01 -1.1372932884e+00 +1.7411324130e+02 1.7644664214e+02 0.0000000000e+00 0.0000e+00 -1.0000e+00
<mgrwt>
<rscale>  2 0.12500000E+03</rscale>
<asrwt>0</asrwt>
<pdfrwt beam="1">  1       21 0.40081016E-01 0.12500000E+03</pdfrwt>
<pdfrwt beam="2">  1       21 0.21076742E-02 0.12500000E+03</pdfrwt>
<totfact> 0.65475665E+06</totfact>
</mgrwt>
</event>
<event>
 6      0 +1.3698540e+00 1.25000000e+02 7.54677100e-03 1.12640300e-01
       21 -1    0    0  502  501 +0.0000000000e+00 +0.0000000000e+00 +1.0513079416e+03 1.0513079416e+03 0.0000000000e+00 0.0000e+00 -1.0000e+00
       21 -1    0    0  501  502 -0.0000000000e+00 -0.0000000000e+00 -3.7156097139e+00 3.7156097139e+00 0.0000000000e+00 0.0000e+00 -1.0000e+00
       25  2    1    2    0    0 +0.0000000000e+00 +0.0000000000e+00 +1.0475923318e+03 1.0550235513e+03 1.2500000000e+02 0.0000e+00 0.0000e+00
      -15  1    3    3    0    0 +2.6235709354e+01 -3.0545055109e+01 +1.6370155798e+02 1.6859024483e+02 1.7770000000e+00 0.0000e+00 -1.0000e+00
       15  1    3    3    0    0 +6.6941669948e+00 +2.8854529954e+01 +2.6323651694e+02 2.6490378886e+02 1.7770000000e+00 0.0000e+00 -1.0000e+00
       22  1    3    3    0    0 -3.2929876349e+01 +1.6905251546e+00 +6.2065425179e+02 6.2152951249e+02 0.0000000000e+00 0.0000e+00 -1.0000e+00
<mgrwt>
<rscale>  2 0.12500000E+03</rscale>
<asrwt>0</asrwt>
<pdfrwt beam="1">  1       21 0.15460390E+00 0.12500000E+03</pdfrwt>
<pdfrwt beam="2">  1       21 0.54641392E-03 0.12500000E+03</pdfrwt>
<totfact> 0.19600697E+06</totfact>
</mgrwt>
</event>
<event>
 6      0 +1.3698540e+00 1.25000000e+02 7.54677100e-03 1.12640300e-01
       21 -1    0    0  502  501 +0.0000000000e+00 +0.0000000000e+00 +4.3009999684e+00 4.3009999684e+00 0.0000000000e+00 0.0000e+00 -1.0000e+00
       21 -1    0    0  501  502 -0.0000000000e+00 -0.0000000000e+00 -9.0821902551e+02 9.0821902551e+02 0.0000000000e+00 0.0000e+00 -1.0000e+00
       25  2    1    2    0    0 +0.0000000000e+00 +0.0000000000e+00 -9.0391802554e+02 9.1252002548e+02 1.2500000000e+02 0.0000e+00 0.0000e+00
      -15  1    3    3    0    0 +2.0076259989e+01 -1.1039819525e+01 -1.0248150534e+02 1.0502642761e+02 1.7770000000e+00 0.0000e+00 -1.0000e+00
       15  1    3    3    0    0 +3.0601865461e+01 +3.1134476242e+01 -3.1625661258e+02 3.1926044621e+02 1.7770000000e+00 0.0000e+00 -1.0000e+00
       22  1    3    3    0    0 -5.0678125450e+01 -2.0094656717e+01 -4.8517990744e+02 4.8823315149e+02 0.0000000000e+00 0.0000e+00 -1.0000e+00
<mgrwt>
<rscale>  2 0.12500000E+03</rscale>
<asrwt>0</asrwt>
<pdfrwt beam="1">  1       21 0.63249992E-03 0.12500000E+03</pdfrwt>
<pdfrwt beam="2">  1       21 0.13356164E+00 0.12500000E+03</pdfrwt>
<totfact> 0.23994240E+06</totfact>
</mgrwt>
</event>
<event>
 6      0 +1.3698540e+00 1.25000000e+02 7.54677100e-03 1.12640300e-01
       21 -1    0    0  502  501 +0.0000000000e+00 +0.0000000000e+00 +8.2984837293e+00 8.2984837293e+00 0.0000000000e+00 0.0000e+00 1.0000e+00
       21 -1    0    0  501  502 -0.0000000000e+00 -0.0000000000e+00 -4.7071852249e+02 4.7071852249e+02 0.0000000000e+00 0.0000e+00 1.0000e+00
       25  2    1    2    0    0 +0.0000000000e+00 +0.0000000000e+00 -4.6242003877e+02 4.7901700622e+02 1.2500000000e+02 0.0000e+00 0.0000e+00
      -15  1    3    3    0    0 -1.4283034271e+01 -4.2776992796e+00 -2.1930648604e+01 2.6578466026e+01 1.7770000000e+00 0.0000e+00 -1.0000e+00
       15  1    3    3    0    0 +3.0584150960e+01 -1.6340323322e+01 -4.8927267881e+01 5.9995264209e+01 1.7770000000e+00 0.0000e+00 -1.0000e+00
       22  1    3    3    0    0 -1.6301116689e+01 +2.0618022601e+01 -3.9156212240e+02 3.9244327611e+02 0.0000000000e+00 0.0000e+00 -1.0000e+00
<mgrwt>
<rscale>  2 0.12500000E+03</rscale>
<asrwt>0</asrwt>
<pdfrwt beam="1">  1       21 0.12203652E-02 0.12500000E+03</pdfrwt>
<pdfrwt beam="2">  1       21 0.69223315E-01 0.12500000E+03</pdfrwt>
<totfact> 0.46929070E+06</totfact>
</mgrwt>
</event>
<event>
 6      0 +1.3698540e+00 1.25000000e+02 7.54677100e-03 1.12640300e-01
       21 -1    0    0  502  501 +0.0000000000e+00 +0.0000000000e+00 +5.4394215649e+02 5.4394215649e+02 0.0000000000e+00 0.0000e+00 -1.0000e+00
       21 -1    0    0  501  502 -0.0000000000e+00 -0.0000000000e+00 -7.1813702126e+00 7.1813702126e+00 0.0000000000e+00 0.0000e+00 -1.0000e+00
       25  2    1    2    0    0 +0.0000000000e+00 +0.0000000000e+00 +5.3676078628e+02 5.5112352670e+02 1.2500000000e+02 0.0000e+00 0.0000e+00
      -15  1    3    3    0    0 +2.8981205438e+01 -4.6253329270e+01 +2.7457310895e+02 2.7995147906e+02 1.7770000000e+00 0.0000e+00 -1.0000e+00
       15  1    3    3    0    0 -1.8655815110e+01 +7.5969531533e+00 +3.4451233981e+01 3.9947445306e+01 1.7770000000e+00 0.0000e+00 -1.0000e+00
       22  1    3    3    0    0 -1.0325390328e+01 +3.8656376117e+01 +2.2773644345e+02 2.3122460244e+02 0.0000000000e+00 0.0000e+00 -1.0000e+00
<mgrwt>
<rscale>  2 0.12500000E+03</rscale>
<asrwt>0</asrwt>
<pdfrwt beam="1">  1       21 0.79991466E-01 0.12500000E+03</pdfrwt>
<pdfrwt beam="2">  1       21 0.10560842E-02 0.12500000E+03</pdfrwt>
<totfact> 0.41719029E+06</totfact>
</mgrwt>
</event>
<event>
 6      0 +1.3698540e+00 1.25000000e+02 7.54677100e-03 1.12640300e-01
       21 -1    0    0  502  501 +0.0000000000e+00 +0.0000000000e+00 +9.9559145622e+01 9.9559145622e+01 0.0000000000e+00 0.0000e+00 -1.0000e+00
       21 -1    0    0  501  502 -0.0000000000e+00 -0.0000000000e+00 -3.9235471293e+01 3.9235471293e+01 0.0000000000e+00 0.0000e+00 -1.0000e+00
       25  2    1    2    0    0 +0.0000000000e+00 +0.0000000000e+00 +6.0323674329e+01 1.3879461691e+02 1.2500000000e+02 0.0000e+00 0.0000e+00
      -15  1    3    3    0    0 +2.8726077856e+01 +1.7848366330e+01 -2.0882889450e+01 3.9786989462e+01 1.7770000000e+00 0.0000e+00 -1.0000e+00
       15  1    3    3    0    0 -3.1504874140e+01 -2.4337732901e+01 +3.7451895424e+01 5.4687151482e+01 1.7770000000e+00 0.0000e+00 -1.0000e+00
       22  1    3    3    0    0 +2.7787962843e+00 +6.4893665710e+00 +4.3754668359e+01 4.4320475973e+01 0.0000000000e+00 0.0000e+00 -1.0000e+00
<mgrwt>
<rscale>  2 0.12500000E+03</rscale>
<asrwt>0</asrwt>
<pdfrwt beam="1">  1       21 0.14641051E-01 0.12500000E+03</pdfrwt>
<pdfrwt beam="2">  1       21 0.57699223E-02 0.12500000E+03</pdfrwt>
<totfact> 0.86548430E+06</totfact>
</mgrwt>
</event>
<event>
 6      0 +1.3698540e+00 1.25000000e+02 7.54677100e-03 1.12640300e-01
       21 -1    0    0  502  501 +0.0000000000e+00 +0.0000000000e+00 +5.7213136395e+02 5.7213136395e+02 0.0000000000e+00 0.0000e+00 -1.0000e+00
       21 -1    0    0  501  502 -0.0000000000e+00 -0.0000000000e+00 -6.8275403975e+00 6.8275403975e+00 0.0000000000e+00 0.0000e+00 -1.0000e+00
       25  2    1    2    0    0 +0.0000000000e+00 +0.0000000000e+00 +5.6530382355e+02 5.7895890434e+02 1.2500000000e+02 0.0000e+00 0.0000e+00
      -15  1    3    3    0    0 -2.1316184562e+01 +1.7748960552e+01 +5.6826654457e+01 6.3260032491e+01 1.7770000000e+00 0.0000e+00 -1.0000e+00
       15  1    3    3    0    0 +4.2350279436e+00 +6.2986680423e+00 +1.5919908268e+00 7.9561827876e+00 1.7770000000e+00 0.0000e+00 -1.0000e+00
       22  1    3    3    0    0 +1.7081156619e+01 -2.4047628594e+01 +5.0688517836e+02 5.0774268916e+02 0.0000000000e+00 0.0000e+00 -1.0000e+00
<mgrwt>
<rscale>  2 0.12500000E+03</rscale>
<asrwt>0</asrwt>
<pdfrwt beam="1">  1       21 0.84136933E-01 0.12500000E+03</pdfrwt>
<pdfrwt beam="2">  1       21 0.10040504E-02 0.12500000E+03</pdfrwt>
<totfact> 0.39879322E+06</totfact>
</mgrwt>
</event>
<event>
 6      0 +1.3698540e+00 1.25000000e+02 7.54677100e-03 1.12640300e-01
       21 -1    0    0  502  501 +0.0000000000e+00 +0.0000000000e+00 +9.9311564671e+00 9.9311564671e+00 0.0000000000e+00 0.0000e+00 -1.0000e+00
       21 -1    0    0  501  502 -0.0000000000e+00 -0.0000000000e+00 -3.9333284225e+02 3.9333284225e+02 0.0000000000e+00 0.0000e+00 -1.0000e+00
       25  2    1    2    0    0 +0.0000000000e+00 +0.0000000000e+00 -3.8340168578e+02 4.0326399871e+02 1.2500000000e+02 0.0000e+00 0.0000e+00
      -15  1    3    3    0    0 +3.7053311851e+01 +4.7959654022e+01 -2.4062893400e+02 2.4815019231e+02 1.7770000000e+00 0.0000e+00 -1.0000e+00
       15  1    3    3    0    0 -3.7053312317e+01 -4.7959654702e+01 -1.4277274769e+02 1.5511380224e+02 1.7770000000e+00 0.0000e+00 -1.0000e+00
       22  1    3    3    0    0 +4.6602689838e-07 +6.7957207836e-07 -4.1215638164e-06 4.2031283079e-06 0.0000000000e+00 0.0000e+00 1.0000e+00
<mgrwt>
<rscale>  2 0.12500000E+03</rscale>
<asrwt>0</asrwt>
<pdfrwt beam="1">  1       21 0.14604640E-02 0.12500000E+03</pdfrwt>
<pdfrwt beam="2">  1       21 0.57843071E-01 0.12500000E+03</pdfrwt>
<totfact> 0.53355484E+06</totfact>
</mgrwt>
</event>
<event>
 6      0 +1.3698540e+00 1.25000000e+02 7.54677100e-03 1.12640300e-01
       21 -1    0    0  502  501 +0.0000000000e+00 +0.0000000000e+00 +1.3259276704e+02 1.3259276704e+02 0.0000000000e+00 0.0000e+00 -1.0000e+00
       21 -1    0    0  501  502 -0.0000000000e+00 -0.0000000000e+00 -2.9460505932e+01 2.9460505932e+01 0.0000000000e+00 0.0000e+00 -1.0000e+00
       25  2    1    2    0    0 +0.0000000000e+00 +0.0000000000e+00 +1.0313226111e+02 1.6205327297e+02 1.2500000000e+02 0.0000e+00 0.0000e+00
      -15  1    3    3    0    0 +1.1804914283e+01 -1.5108918854e+01 -2.5518567979e+01 3.1968585687e+01 1.7770000000e+00 0.0000e+00 1.0000e+00
       15  1    3    3    0    0 -1.1805021467e+01 +1.5109158705e+01 +1.2865114265e+02 1.3008427823e+02 1.7770000000e+00 0.0000e+00 1.0000e+00
       22  1    3    3    0    0 +1.0718365647e-04 -2.3985008510e-04 -3.1355387257e-04 4.0906286868e-04 0.0000000000e+00 0.0000e+00 -1.0000e+00
<mgrwt>
<rscale>  2 0.12500000E+03</rscale>
<asrwt>0</asrwt>
<pdfrwt beam="1">  1       21 0.19498936E-01 0.12500000E+03</pdfrwt>
<pdfrwt beam="2">  1       21 0.43324274E-02 0.12500000E+03</pdfrwt>
<totfact> 0.82644632E+06</totfact>
</mgrwt>
</event>
<event>
 6      0 +1.3698540e+00 1.25000000e+02 7.54677100e-03 1.12640300e-01
       21 -1    0    0  502  501 +0.0000000000e+00 +0.0000000000e+00 +7.8924681852e+00 7.8924681852e+00 0.0000000000e+00 0.0000e+00 1.0000e+00
       21 -1    0    0  501  502 -0.0000000000e+00 -0.0000000000e+00 -4.9493389246e+02 4.9493389246e+02 0.0000000000e+00 0.0000e+00 1.0000e+00
       25  2    1    2    0    0 +0.0000000000e+00 +0.0000000000e+00 -4.8704142427e+02 5.0282636064e+02 1.2500000000e+02 0.0000e+00 0.0000e+00
      -15  1    3    3    0    0 -2.1126665738e+01 +2.1283482058e+01 -2.3054909408e+01 3.7868313805e+01 1.7770000000e+00 0.0000e+00 1.0000e+00
       15  1    3    3    0    0 +2.1126669537e+01 -2.1283564604e+01 -4.6398631022e+02 4.6495782614e+02 1.7770000000e+00 0.0000e+00 1.0000e+00
       22  1    3    3    0    0 -3.7986138159e-06 +8.2546063725e-05 -2.0464808686e-04 2.2070143081e-04 0.0000000000e+00 0.0000e+00 1.0000e+00
<mgrwt>
<rscale>  2 0.12500000E+03</rscale>
<asrwt>0</asrwt>
<pdfrwt beam="1">  1       21 0.11606568E-02 0.12500000E+03</pdfrwt>
<pdfrwt beam="2">  1       21 0.72784411E-01 0.12500000E+03</pdfrwt>
<totfact> 0.45116314E+06</totfact>
</mgrwt>
</event>
<event>
 6      0 +1.3698540e+00 1.25000000e+02 7.54677100e-03 1.12640300e-01
       21 -1    0    0  502  501 +0.0000000000e+00 +0.0000000000e+00 +5.2886533901e+01 5.2886533901e+01 0.0000000000e+00 0.0000e+00 1.0000e+00
       21 -1    0    0  501  502 -0.0000000000e+00 -0.0000000000e+00 -7.3860956880e+01 7.3860956880e+01 0.0000000000e+00 0.0000e+00 1.0000e+00
       25  2    1    2    0    0 +0.0000000000e+00 +0.0000000000e+00 -2.0974422980e+01 1.2674749078e+02 1.2500000000e+02 0.0000e+00 0.0000e+00
      -15  1    3    3    0    0 -1.5264616952e+01 -3.7223097562e+01 -4.5584463200e+01 6.0824900634e+01 1.7770000000e+00 0.0000e+00 -1.0000e+00
       15  1    3    3    0    0 +1.5210367061e+01 +3.5434223037e+01 -2.5666714658e+00 3.8687012805e+01 1.7770000000e+00 0.0000e+00 -1.0000e+00
       22  1    3    3    0    0 +5.4249891252e-02 +1.7888745250e+00 +2.7176711687e+01 2.7235577342e+01 0.0000000000e+00 0.0000e+00 -1.0000e+00
<mgrwt>
<rscale>  2 0.12500000E+03</rscale>
<asrwt>0</asrwt>
<pdfrwt beam="1">  1       21 0.77774316E-02 0.12500000E+03</pdfrwt>
<pdfrwt beam="2">  1       21 0.10861905E-01 0.12500000E+03</pdfrwt>
<totfact> 0.88678116E+06</totfact>
</mgrwt>
</event>
<event>
 6      0 +1.3698540e+00 1.25000000e+02 7.54677100e-03 1.12640300e-01
       21 -1    0    0  502  501 +0.0000000000e+00 +0.0000000000e+00 +2.9006983775e+01 2.9006983775e+01 0.0000000000e+00 0.0000e+00 1.0000e+00
       21 -1    0    0  501  502 -0.0000000000e+00 -0.0000000000e+00 -1.3466584566e+02 1.3466584566e+02 0.0000000000e+00 0.0000e+00 1.0000e+00
       25  2    1    2    0    0 +0.0000000000e+00 +0.0000000000e+00 -1.0565886188e+02 1.6367282943e+02 1.2500000000e+02 0.0000e+00 0.0000e+00
      -15  1    3    3    0    0 -4.8343890055e+00 +3.2195382102e+01 -5.7303909198e+01 6.5930339633e+01 1.7770000000e+00 0.0000e+00 -1.0000e+00
       15  1    3    3    0    0 +4.1944487885e+00 -5.5793849830e+01 -4.8601987530e+01 7.4134054256e+01 1.7770000000e+00 0.0000e+00 -1.0000e+00
       22  1    3    3    0    0 +6.3994021700e-01 +2.3598467728e+01 +2.4703484635e-01 2.3608435544e+01 0.0000000000e+00 0.0000e+00 -1.0000e+00
<mgrwt>
<rscale>  2 0.12500000E+03</rscale>
<asrwt>0</asrwt>
<pdfrwt beam="1">  1       21 0.42657329E-02 0.12500000E+03</pdfrwt>
<pdfrwt beam="2">  1       21 0.19803801E-01 0.12500000E+03</pdfrwt>
<totfact> 0.82381556E+06</totfact>
</mgrwt>
</event>
<event>
 6      0 +1.3698540e+00 1.25000000e+02 7.54677100e-03 1.12640300e-01
       21 -1    0    0  502  501 +0.0000000000e+00 +0.0000000000e+00 +7.2914586679e+00 7.2914586679e+00 0.0000000000e+00 0.0000e+00 -1.0000e+00
       21 -1    0    0  501  502 -0.0000000000e+00 -0.0000000000e+00 -5.3572956769e+02 5.3572956769e+02 0.0000000000e+00 0.0000e+00 -1.0000e+00
       25  2    1    2    0    0 +0.0000000000e+00 +0.0000000000e+00 -5.2843810902e+02 5.4302102636e+02 1.2500000000e+02 0.0000e+00 0.0000e+00
      -15  1    3    3    0    0 +1.4017075996e+00 +5.3185268506e+00 -2.0663879318e+01 2.1457053607e+01 1.7770000000e+00 0.0000e+00 -1.0000e+00
       15  1    3    3    0    0 +3.5522219128e+01 +1.4210046403e+01 -5.5893863346e+01 6.7757177917e+01 1.7770000000e+00 0.0000e+00 -1.0000e+00
       22  1    3    3    0    0 -3.6923926728e+01 -1.9528573254e+01 -4.5188036628e+02 4.5380679476e+02 0.0000000000e+00 0.0000e+00 -1.0000e+00
<mgrwt>
<rscale>  2 0.12500000E+03</rscale>
<asrwt>0</asrwt>
<pdfrwt beam="1">  1       21 0.10722736E-02 0.12500000E+03</pdfrwt>
<pdfrwt beam="2">  1       21 0.78783742E-01 0.12500000E+03</pdfrwt>
<totfact> 0.42268180E+06</totfact>
</mgrwt>
</event>
<event>
 6      0 +1.3698540e+00 1.25000000e+02 7.54677100e-03 1.12640300e-01
       21 -1    0    0  502  501 +0.0000000000e+00 +0.0000000000e+00 +3.7081121904e+01 3.7081121904e+01 0.0000000000e+00 0.0000e+00 -1.0000e+00
       21 -1    0    0  501  502 -0.0000000000e+00 -0.0000000000e+00 -1.0534336070e+02 1.0534336070e+02 0.0000000000e+00 0.0000e+00 -1.0000e+00
       25  2    1    2    0    0 +0.0000000000e+00 +0.0000000000e+00 -6.8262238799e+01 1.4242448261e+02 1.2500000000e+02 0.0000e+00 0.0000e+00
      -15  1    3    3    0    0 -1.1122208549e+01 +3.3638950482e+01 -1.4958270854e+01 3.8499222180e+01 1.7770000000e+00 0.0000e+00 -1.0000e+00
       15  1    3    3    0    0 -3.3812519977e+01 -6.0252208631e+00 -3.2218733681e+01 4.7125304483e+01 1.7770000000e+00 0.0000e+00 -1.0000e+00
       22  1    3    3    0    0 +4.4934728526e+01 -2.7613729619e+01 -2.1085234262e+01 5.6799955942e+01 0.0000000000e+00 0.0000e+00 -1.0000e+00
<mgrwt>
<rscale>  2 0.12500000E+03</rscale>
<asrwt>0</asrwt>
<pdfrwt beam="1">  1       21 0.54531062E-02 0.12500000E+03</pdfrwt>
<pdfrwt beam="2">  1       21 0.15491670E-01 0.12500000E+03</pdfrwt>
<totfact> 0.85920170E+06</totfact>
</mgrwt>
</event>
<event>
 6      0 +1.3698540e+00 1.25000000e+02 7.54677100e-03 1.12640300e-01
       21 -1    0    0  502  501 +0.0000000000e+00 +0.0000000000e+00 +4.8781621013e+01 4.8781621013e+01 0.0000000000e+00 0.0000e+00 -1.0000e+00
       21 -1    0    0  501  502 -0.0000000000e+00 -0.0000000000e+00 -8.0076264767e+01 8.0076264767e+01 0.0000000000e+00 0.0000e+00 -1.0000e+00
       25  2    1    2    0    0 +0.0000000000e+00 +0.0000000000e+00 -3.1294643754e+01 1.2885788578e+02 1.2500000000e+02 0.0000e+00 0.0000e+00
      -15  1    3    3    0    0 +1.2266353974e+01 -3.6463270845e+01 +1.8116040398e+01 4.2560336104e+01 1.7770000000e+00 0.0000e+00 -1.0000e+00
       15  1    3    3    0    0 -1.8498049395e+01 +4.4119987306e+01 -1.4505524584e+01 5.0023185462e+01 1.7770000000e+00 0.0000e+00 -1.0000e+00
       22  1    3    3    0    0 +6.2316954212e+00 -7.6567164603e+00 -3.4905159567e+01 3.6274364215e+01 0.0000000000e+00 0.0000e+00 -1.0000e+00
<mgrwt>
<rscale>  2 0.12500000E+03</rscale>
<asrwt>0</asrwt>
<pdfrwt beam="1">  1       21 0.71737678E-02 0.12500000E+03</pdfrwt>
<pdfrwt beam="2">  1       21 0.11775921E-01 0.12500000E+03</pdfrwt>
<totfact> 0.88304881E+06</totfact>
</mgrwt>
</event>
<event>
 6      0 +1.3698540e+00 1.25000000e+02 7.54677100e-03 1.12640300e-01
       21 -1    0    0  502  501 +0.0000000000e+00 +0.0000000000e+00 +2.0059801956e+01 2.0059801956e+01 0.0000000000e+00 0.0000e+00 -1.0000e+00
       21 -1    0    0  501  502 -0.0000000000e+00 -0.0000000000e+00 -1.9473023755e+02 1.9473023755e+02 0.0000000000e+00 0.0000e+00 -1.0000e+00
       25  2    1    2    0    0 +0.0000000000e+00 +0.0000000000e+00 -1.7467043559e+02 2.1479003950e+02 1.2500000000e+02 0.0000e+00 0.0000e+00
      -15  1    3    3    0    0 +2.2985014523e+01 +9.0295130657e+00 -5.1350478601e+01 5.7007651946e+01 1.7770000000e+00 0.0000e+00 -1.0000e+00
       15  1    3    3    0    0 -1.9478359805e+01 -5.0129324214e+01 -4.8972417014e+01 7.2758580277e+01 1.7770000000e+00 0.0000e+00 -1.0000e+00
       22  1    3    3    0    0 -3.5066547182e+00 +4.1099811148e+01 -7.4347539979e+01 8.5023807282e+01 0.0000000000e+00 0.0000e+00 -1.0000e+00
<mgrwt>
<rscale>  2 0.12500000E+03</rscale>
<asrwt>0</asrwt>
<pdfrwt beam="1">  1       21 0.29499710E-02 0.12500000E+03</pdfrwt>
<pdfrwt beam="2">  1       21 0.28636799E-01 0.12500000E+03</pdfrwt>
<totfact> 0.74713053E+06</totfact>
</mgrwt>
</event>
<event>
 6      0 +1.3698540e+00 1.25000000e+02 7.54677100e-03 1.12640300e-01
       21 -1    0    0  502  501 +0.0000000000e+00 +0.0000000000e+00 +1.1518176816e+02 1.1518176816e+02 0.0000000000e+00 0.0000e+00 1.0000e+00
       21 -1    0    0  501  502 -0.0000000000e+00 -0.0000000000e+00 -3.3913787420e+01 3.3913787420e+01 0.0000000000e+00 0.0000e+00 1.0000e+00
       25  2    1    2    0    0 +0.0000000000e+00 +0.0000000000e+00 +8.1267980741e+01 1.4909555558e+02 1.2500000000e+02 0.0000e+00 0.0000e+00
      -15  1    3    3    0    0 -4.0919190254e+01 -1.5825464652e+01 +4.5132813240e+00 4.4140150655e+01 1.7770000000e+00 0.0000e+00 -1.0000e+00
       15  1    3    3    0    0 -3.2814503804e+00 +9.4824616610e+00 -5.3382569263e+00 1.1503899851e+01 1.7770000000e+00 0.0000e+00 -1.0000e+00
       22  1    3    3    0    0 +4.4200640635e+01 +6.3430029914e+00 +8.2092956343e+01 9.3451505074e+01 0.0000000000e+00 0.0000e+00 -1.0000e+00
<mgrwt>
<rscale>  2 0.12500000E+03</rscale>
<asrwt>0</asrwt>
<pdfrwt beam="1">  1       21 0.16938495E-01 0.12500000E+03</pdfrwt>
<pdfrwt beam="2">  1       21 0.49873217E-02 0.12500000E+03</pdfrwt>
<totfact> 0.84777444E+06</totfact>
</mgrwt>
</event>
<event>
 6      0 +1.3698540e+00 1.25000000e+02 7.54677100e-03 1.12640300e-01
       21 -1    0    0  502  501 +0.0000000000e+00 +0.0000000000e+00 +2.4503371864e+01 2.4503371864e+01 0.0000000000e+00 0.0000e+00 1.0000e+00
       21 -1    0    0  501  502 -0.0000000000e+00 -0.0000000000e+00 -1.5941683543e+02 1.5941683543e+02 0.0000000000e+00 0.0000e+00 1.0000e+00
       25  2    1    2    0    0 +0.0000000000e+00 +0.0000000000e+00 -1.3491346357e+02 1.8392020730e+02 1.2500000000e+02 0.0000e+00 0.0000e+00
      -15  1    3    3    0    0 +1.3968609146e+01 -1.3274220484e+01 +7.4958106840e+00 2.0752635441e+01 1.7770000000e+00 0.0000e+00 -1.0000e+00
       15  1    3    3    0    0 +6.6812833851e-01 -2.2401298852e+01 -8.8631780141e+00 2.4165641710e+01 1.7770000000e+00 0.0000e+00 -1.0000e+00
       22  1    3    3    0    0 -1.4636737485e+01 +3.5675519336e+01 -1.3354609623e+02 1.3900193014e+02 0.0000000000e+00 0.0000e+00 -1.0000e+00
<mgrwt>
<rscale>  2 0.12500000E+03</rscale>
<asrwt>0</asrwt>
<pdfrwt beam="1">  1       21 0.36034370E-02 0.12500000E+03</pdfrwt>
<pdfrwt beam="2">  1       21 0.23443653E-01 0.12500000E+03</pdfrwt>
<totfact> 0.79210087E+06</totfact>
</mgrwt>
</event>
<event>
 6      0 +1.3698540e+00 1.25000000e+02 7.54677100e-03 1.12640300e-01
       21 -1    0    0  502  501 +0.0000000000e+00 +0.0000000000e+00 +4.7862862491e+01 4.7862862491e+01 0.0000000000e+00 0.0000e+00 1.0000e+00
       21 -1    0    0  501  502 -0.0000000000e+00 -0.0000000000e+00 -8.1613380327e+01 8.1613380327e+01 0.0000000000e+00 0.0000e+00 1.0000e+00
       25  2    1    2    0    0 +0.0000000000e+00 +0.0000000000e+00 -3.3750517837e+01 1.2947624282e+02 1.2500000000e+02 0.0000e+00 0.0000e+00
      -15  1    3    3    0    0 -2.1218072719e+01 +1.1746001048e+01 -4.4707760697e+01 5.0893189584e+01 1.7770000000e+00 0.0000e+00 -1.0000e+00
       15  1    3    3    0    0 -2.4212386430e+01 +7.5620229680e+00 +1.4180465139e+01 2.9114724257e+01 1.7770000000e+00 0.0000e+00 -1.0000e+00
       22  1    3    3    0    0 +4.5430459149e+01 -1.9308024016e+01 -3.2232222802e+00 4.9468328977e+01 0.0000000000e+00 0.0000e+00 -1.0000e+00
<mgrwt>
<rscale>  2 0.12500000E+03</rscale>
<asrwt>0</asrwt>
<pdfrwt beam="1">  1       21 0.70386563E-02 0.12500000E+03</pdfrwt>
<pdfrwt beam="2">  1       21 0.12001968E-01 0.12500000E+03</pdfrwt>
<totfact> 0.88193262E+06</totfact>
</mgrwt>
</event>
<event>
 6      0 +1.3698540e+00 1.25000000e+02 7.54677100e-03 1.12640300e-01
       21 -1    0    0  502  501 +0.0000000000e+00 +0.0000000000e+00 +2.5271048146e+02 2.5271048146e+02 0.0000000000e+00 0.0000e+00 -1.0000e+00
       21 -1    0    0  501  502 -0.0000000000e+00 -0.0000000000e+00 -1.5457411886e+01 1.5457411886e+01 0.0000000000e+00 0.0000e+00 -1.0000e+00
       25  2    1    2    0    0 +0.0000000000e+00 +0.0000000000e+00 +2.3725306958e+02 2.6816789335e+02 1.2500000000e+02 0.0000e+00 0.0000e+00
      -15  1    3    3    0    0 -2.7875263221e+01 +3.5421248506e+01 +4.5349495373e+01 6.3964283823e+01 1.7770000000e+00 0.0000e+00 -1.0000e+00
       15  1    3    3    0    0 +2.4811021726e+01 +7.8644488152e+00 +6.2833196414e+01 6.8033849331e+01 1.7770000000e+00 0.0000e+00 -1.0000e+00
       22  1    3    3    0    0 +3.0642414951e+00 -4.3285697321e+01 +1.2907037780e+02 1.3616976021e+02 0.0000000000e+00 0.0000e+00 -1.0000e+00
<mgrwt>
<rscale>  2 0.12500000E+03</rscale>
<asrwt>0</asrwt>
<pdfrwt beam="1">  1       21 0.37163303E-01 0.12500000E+03</pdfrwt>
<pdfrwt beam="2">  1       21 0.22731490E-02 0.12500000E+03</pdfrwt>
<totfact> 0.67722559E+06</totfact>
</mgrwt>
</event>
<event>
 6      0 +1.3698540e+00 1.25000000e+02 7.54677100e-03 1.12640300e-01
       21 -1    0    0  502  501 +0.0000000000e+00 +0.0000000000e+00 +2.8584571421e+01 2.8584571421e+01 0.0000000000e+00 0.0000e+00 -1.0000e+00
       21 -1    0    0  501  502 -0.0000000000e+00 -0.0000000000e+00 -1.3665588833e+02 1.3665588833e+02 0.0000000000e+00 0.0000e+00 -1.0000e+00
       25  2    1    2    0    0 +0.0000000000e+00 +0.0000000000e+00 -1.0807131691e+02 1.6524045975e+02 1.2500000000e+02 0.0000e+00 0.0000e+00
      -15  1    3    3    0    0 +5.3872536506e+01 -3.6287461132e+00 -9.5580131418e+01 1.0979133499e+02 1.7770000000e+00 0.0000e+00 1.0000e+00
       15  1    3    3    0    0 -5.3872536485e+01 +3.6287460447e+00 -1.2491185484e+01 5.5449124691e+01 1.7770000000e+00 0.0000e+00 1.0000e+00
       22  1    3    3    0    0 -2.0829276519e-08 +6.8463869112e-08 -1.0677061811e-08 7.2354404034e-08 0.0000000000e+00 0.0000e+00 1.0000e+00
<mgrwt>
<rscale>  2 0.12500000E+03</rscale>
<asrwt>0</asrwt>
<pdfrwt beam="1">  1       21 0.42036135E-02 0.12500000E+03</pdfrwt>
<pdfrwt beam="2">  1       21 0.20096454E-01 0.12500000E+03</pdfrwt>
<totfact> 0.82127266E+06</totfact>
</mgrwt>
</event>
<event>
 6      0 +1.3698540e+00 1.25000000e+02 7.54677100e-03 1.12640300e-01
       21 -1    0    0  502  501 +0.0000000000e+00 +0.0000000000e+00 +6.6166199449e+01 6.6166199449e+01 0.0000000000e+00 0.0000e+00 1.0000e+00
       21 -1    0    0  501  502 -0.0000000000e+00 -0.0000000000e+00 -5.9036940803e+01 5.9036940803e+01 0.0000000000e+00 0.0000e+00 1.0000e+00
       25  2    1    2    0    0 +0.0000000000e+00 +0.0000000000e+00 +7.1292586463e+00 1.2520314025e+02 1.2500000000e+02 0.0000e+00 0.0000e+00
      -15  1    3    3    0    0 +2.2956517456e+00 -4.1376850625e-01 -2.1992786546e-01 2.9406323436e+00 1.7770000000e+00 0.0000e+00 -1.0000e+00
       15  1    3    3    0    0 +1.0960068313e+01 +4.7942417101e+01 -3.2384195514e+01 5.8910884419e+01 1.7770000000e+00 0.0000e+00 -1.0000e+00
       22  1    3    3    0    0 -1.3255720059e+01 -4.7528648595e+01 +3.9733382026e+01 6.3351623489e+01 0.0000000000e+00 0.0000e+00 -1.0000e+00
<mgrwt>
<rscale>  2 0.12500000E+03</rscale>
<asrwt>0</asrwt>
<pdfrwt beam="1">  1       21 0.97303234E-02 0.12500000E+03</pdfrwt>
<pdfrwt beam="2">  1       21 0.86819031E-02 0.12500000E+03</pdfrwt>
<totfact> 0.88960168E+06</totfact>
</mgrwt>
</event>
<event>
 6      0 +1.3698540e+00 1.25000000e+02 7.54677100e-03 1.12640300e-01
       21 -1    0    0  502  501 +0.0000000000e+00 +0.0000000000e+00 +3.1782825944e+02 3.1782825944e+02 0.0000000000e+00 0.0000e+00 1.0000e+00
       21 -1    0    0  501  502 -0.0000000000e+00 -0.0000000000e+00 -1.2290442665e+01 1.2290442665e+01 0.0000000000e+00 0.0000e+00 1.0000e+00
       25  2    1    2    0    0 +0.0000000000e+00 +0.0000000000e+00 +3.0553781678e+02 3.3011870211e+02 1.2500000000e+02 0.0000e+00 0.0000e+00
      -15  1    3    3    0    0 -1.3300268759e+01 -1.4178871206e+01 +3.4315925152e-01 1.9524677335e+01 1.7770000000e+00 0.0000e+00 -1.0000e+00
       15  1    3    3    0    0 -1.7777099521e+01 -1.4391267878e+00 +5.1577747784e+01 5.4603279652e+01 1.7770000000e+00 0.0000e+00 -1.0000e+00
       22  1    3    3    0    0 +3.1077368280e+01 +1.5617997993e+01 +2.5361690974e+02 2.5599074512e+02 0.0000000000e+00 0.0000e+00 -1.0000e+00
<mgrwt>
<rscale>  2 0.12500000E+03</rscale>
<asrwt>0</asrwt>
<pdfrwt beam="1">  1       21 0.46739445E-01 0.12500000E+03</pdfrwt>
<pdfrwt beam="2">  1       21 0.18074182E-02 0.12500000E+03</pdfrwt>
<totfact> 0.60610557E+06</totfact>
</mgrwt>
</event>
<event>
 6      0 +1.3698540e+00 1.25000000e+02 7.54677100e-03 1.12640300e-01
       21 -1    0    0  502  501 +0.0000000000e+00 +0.0000000000e+00 +5.1047728368e+01 5.1047728368e+01 0.0000000000e+00 0.0000e+00 -1.0000e+00
       21 -1    0    0  501  502 -0.0000000000e+00 -0.0000000000e+00 -7.6521524559e+01 7.6521524559e+01 0.0000000000e+00 0.0000e+00 -1.0000e+00
       25  2    1    2    0    0 +0.0000000000e+00 +0.0000000000e+00 -2.5473796191e+01 1.2756925293e+02 1.2500000000e+02 0.0000e+00 0.0000e+00
      -15  1    3    3    0    0 +5.2460326402e+00 +4.0659037148e+01 +1.1921852977e+01 4.2731328878e+01 1.7770000000e+00 0.0000e+00 -1.0000e+00
       15  1    3    3    0    0 +6.5594437326e+00 +1.4904060454e+01 +7.7872918209e-01 1.6398825209e+01 1.7770000000e+00 0.0000e+00 -1.0000e+00
       22  1    3    3    0    0 -1.1805476373e+01 -5.5563097602e+01 -3.8174378350e+01 6.8439098839e+01 0.0000000000e+00 0.0000e+00 -1.0000e+00
<mgrwt>
<rscale>  2 0.12500000E+03</rscale>
<asrwt>0</asrwt>
<pdfrwt beam="1">  1       21 0.75070189E-02 0.12500000E+03</pdfrwt>
<pdfrwt beam="2">  1       21 0.11253165E-01 0.12500000E+03</pdfrwt>
<totfact> 0.88533306E+06</totfact>
</mgrwt>
</event>
<event>
 6      0 +1.3698540e+00 1.25000000e+02 7.54677100e-03 1.12640300e-01
       21 -1    0    0  502  501 +0.0000000000e+00 +0.0000000000e+00 +3.7399148147e+01 3.7399148147e+01 0.0000000000e+00 0.0000e+00 1.0000e+00
       21 -1    0    0  501  502 -0.0000000000e+00 -0.0000000000e+00 -1.0444756615e+02 1.0444756615e+02 0.0000000000e+00 0.0000e+00 1.0000e+00
       25  2    1    2    0    0 +0.0000000000e+00 +0.0000000000e+00 -6.7048418002e+01 1.4184671430e+02 1.2500000000e+02 0.0000e+00 0.0000e+00
      -15  1    3    3    0    0 +8.0235275342e+00 +6.7066977839e+00 +1.1724020157e+01 1.5810349992e+01 1.7770000000e+00 0.0000e+00 -1.0000e+00
       15  1    3    3    0    0 -7.2439331958e+00 -4.0402469793e+01 -8.2462036083e+01 9.2130229879e+01 1.7770000000e+00 0.0000e+00 -1.0000e+00
       22  1    3    3    0    0 -7.7959433838e-01 +3.3695772009e+01 +3.6895979277e+00 3.3906134422e+01 0.0000000000e+00 0.0000e+00 -1.0000e+00
<mgrwt>
<rscale>  2 0.12500000E+03</rscale>
<asrwt>0</asrwt>
<pdfrwt beam="1">  1       21 0.54998748E-02 0.12500000E+03</pdfrwt>
<pdfrwt beam="2">  1       21 0.15359936E-01 0.12500000E+03</pdfrwt>
<totfact> 0.86020454E+06</totfact>
</mgrwt>
</event>
<event>
 6      0 +1.3698540e+00 1.25000000e+02 7.54677100e-03 1.12640300e-01
       21 -1    0    0  502  501 +0.0000000000e+00 +0.0000000000e+00 +1.2837783502e+03 1.2837783502e+03 0.0000000000e+00 0.0000e+00 -1.0000e+00
       21 -1    0    0  501  502 -0.0000000000e+00 -0.0000000000e+00 -3.0427760363e+00 3.0427760363e+00 0.0000000000e+00 0.0000e+00 -1.0000e+00
       25  2    1    2    0    0 +0.0000000000e+00 +0.0000000000e+00 +1.2807355742e+03 1.2868211263e+03 1.2500000000e+02 0.0000e+00 0.0000e+00
      -15  1    3    3    0    0 -6.0849134498e+01 +1.3317246442e+01 +5.9087177777e+02 5.9414861922e+02 1.7770000000e+00 0.0000e+00 -1.0000e+00
       15  1    3    3    0    0 +6.0848557962e+01 -1.3317559785e+01 +6.8985567987e+02 6.9266436402e+02 1.7770000000e+00 0.0000e+00 -1.0000e+00
       22  1    3    3    0    0 +5.7653686382e-04 +3.1334286944e-04 +8.1136735925e-03 8.1401644746e-03 0.0000000000e+00 0.0000e+00 1.0000e+00
<mgrwt>
<rscale>  2 0.12500000E+03</rscale>
<asrwt>0</asrwt>
<pdfrwt beam="1">  1       21 0.18879056E+00 0.12500000E+03</pdfrwt>
<pdfrwt beam="2">  1       21 0.44746796E-03 0.12500000E+03</pdfrwt>
<totfact> 0.14218520E+06</totfact>
</mgrwt>
</event>
<event>
 6      0 +1.3698540e+00 1.25000000e+02 7.54677100e-03 1.12640300e-01
       21 -1    0    0  502  501 +0.0000000000e+00 +0.0000000000e+00 +1.2264972814e+03 1.2264972814e+03 0.0000000000e+00 0.0000e+00 -1.0000e+00
       21 -1    0    0  501  502 -0.0000000000e+00 -0.0000000000e+00 -3.1848827219e+00 3.1848827219e+00 0.0000000000e+00 0.0000e+00 -1.0000e+00
       25  2    1    2    0    0 +0.0000000000e+00 +0.0000000000e+00 +1.2233123987e+03 1.2296821641e+03 1.2500000000e+02 0.0000e+00 0.0000e+00
      -15  1    3    3    0    0 +2.7428215099e+01 -1.1096727142e+01 +7.0359290702e+01 7.6348096597e+01 1.7770000000e+00 0.0000e+00 1.0000e+00
       15  1    3    3    0    0 -2.7428214417e+01 +1.1096726903e+01 +1.1529530596e+03 1.1533340191e+03 1.7770000000e+00 0.0000e+00 1.0000e+00
       22  1    3    3    0    0 -6.8223500255e-07 +2.3823697482e-07 +5.2611479563e-05 5.2616442138e-05 0.0000000000e+00 0.0000e+00 1.0000e+00
<mgrwt>
<rscale>  2 0.12500000E+03</rscale>
<asrwt>0</asrwt>
<pdfrwt beam="1">  1       21 0.18036692E+00 0.12500000E+03</pdfrwt>
<pdfrwt beam="2">  1       21 0.46836596E-03 0.12500000E+03</pdfrwt>
<totfact> 0.15382752E+06</totfact>
</mgrwt>
</event>
<event>
 6      0 +1.3698540e+00 1.25000000e+02 7.54677100e-03 1.12640300e-01
       21 -1    0    0  502  501 +0.0000000000e+00 +0.0000000000e+00 +6.8793965134e+01 6.8793965134e+01 0.0000000000e+00 0.0000e+00 -1.0000e+00
       21 -1    0    0  501  502 -0.0000000000e+00 -0.0000000000e+00 -5.6781870218e+01 5.6781870218e+01 0.0000000000e+00 0.0000e+00 -1.0000e+00
       25  2    1    2    0    0 +0.0000000000e+00 +0.0000000000e+00 +1.2012094917e+01 1.2557583535e+02 1.2500000000e+02 0.0000e+00 0.0000e+00
      -15  1    3    3    0    0 -2.5865148649e+01 +5.6778354017e+01 +9.1527064936e+00 6.3084999522e+01 1.7770000000e+00 0.0000e+00 -1.0000e+00
       15  1    3    3    0    0 +2.5735992267e+01 -5.6313140360e+01 +2.7964701366e+00 6.2003943821e+01 1.7770000000e+00 0.0000e+00 -1.0000e+00
       22  1    3    3    0    0 +1.2915638155e-01 -4.6521365665e-01 +6.2918287076e-02 4.8689200864e-01 0.0000000000e+00 0.0000e+00 1.0000e+00
<mgrwt>
<rscale>  2 0.12500000E+03</rscale>
<asrwt>0</asrwt>
<pdfrwt beam="1">  1       21 0.10116760E-01 0.12500000E+03</pdfrwt>
<pdfrwt beam="2">  1       21 0.83502750E-02 0.12500000E+03</pdfrwt>
<totfact> 0.88889323E+06</totfact>
</mgrwt>
</event>
<event>
 6      0 +1.3698540e+00 1.25000000e+02 7.54677100e-03 1.12640300e-01
       21 -1    0    0  502  501 +0.0000000000e+00 +0.0000000000e+00 +4.9147643598e+01 4.9147643598e+01 0.0000000000e+00 0.0000e+00 1.0000e+00
       21 -1    0    0  501  502 -0.0000000000e+00 -0.0000000000e+00 -7.9479904101e+01 7.9479904101e+01 0.0000000000e+00 0.0000e+00 1.0000e+00
       25  2    1    2    0    0 +0.0000000000e+00 +0.0000000000e+00 -3.0332260503e+01 1.2862754770e+02 1.2500000000e+02 0.0000e+00 0.0000e+00
      -15  1    3    3    0    0 -2.9344259496e+01 -4.1412070739e+01 -1.1901802202e+01 5.2161823136e+01 1.7770000000e+00 0.0000e+00 -1.0000e+00
       15  1    3    3    0    0 +2.6123245393e+00 -6.0713046851e+00 +1.2175857998e+01 1.3967613507e+01 1.7770000000e+00 0.0000e+00 -1.0000e+00
       22  1    3    3    0    0 +2.6731934957e+01 +4.7483375424e+01 -3.0606316299e+01 6.2498111056e+01 0.0000000000e+00 0.0000e+00 -1.0000e+00
<mgrwt>
<rscale>  2 0.12500000E+03</rscale>
<asrwt>0</asrwt>
<pdfrwt beam="1">  1       21 0.72275947E-02 0.12500000E+03</pdfrwt>
<pdfrwt beam="2">  1       21 0.11688221E-01 0.12500000E+03</pdfrwt>
<totfact> 0.88346170E+06</totfact>
</mgrwt>
</event>
<event>
 6      0 +1.3698540e+00 1.25000000e+02 7.54677100e-03 1.12640300e-01
       21 -1    0    0  502  501 +0.0000000000e+00 +0.0000000000e+00 +7.3859481969e+01 7.3859481969e+01 0.0000000000e+00 0.0000e+00 1.0000e+00
       21 -1    0    0  501  502 -0.0000000000e+00 -0.0000000000e+00 -5.2887590000e+01 5.2887590000e+01 0.0000000000e+00 0.0000e+00 1.0000e+00
       25  2    1    2    0    0 +0.0000000000e+00 +0.0000000000e+00 +2.0971891969e+01 1.2674707197e+02 1.2500000000e+02 0.0000e+00 0.0000e+00
      -15  1    3    3    0    0 +1.7325149909e+01 +5.6582326074e+00 +4.5158268343e+01 4.8729901952e+01 1.7770000000e+00 0.0000e+00 -1.0000e+00
       15  1    3    3    0    0 -1.8221183887e+01 +5.0078987407e+00 +2.2892163142e+01 2.9737172939e+01 1.7770000000e+00 0.0000e+00 -1.0000e+00
       22  1    3    3    0    0 +8.9603397755e-01 -1.0666131348e+01 -4.7078539516e+01 4.8279997078e+01 0.0000000000e+00 0.0000e+00 -1.0000e+00
<mgrwt>
<rscale>  2 0.12500000E+03</rscale>
<asrwt>0</asrwt>
<pdfrwt beam="1">  1       21 0.10861689E-01 0.12500000E+03</pdfrwt>
<pdfrwt beam="2">  1       21 0.77775868E-02 0.12500000E+03</pdfrwt>
<totfact> 0.88678191E+06</totfact>
</mgrwt>
</event>
<event>
 6      0 +1.3698540e+00 1.25000000e+02 7.54677100e-03 1.12640300e-01
       21 -1    0    0  502  501 +0.0000000000e+00 +0.0000000000e+00 +2.4819898824e+02 2.4819898824e+02 0.0000000000e+00 0.0000e+00 -1.0000e+00
       21 -1    0    0  501  502 -0.0000000000e+00 -0.0000000000e+00 -1.5738380030e+01 1.5738380030e+01 0.0000000000e+00 0.0000e+00 -1.0000e+00
       25  2    1    2    0    0 +0.0000000000e+00 +0.0000000000e+00 +2.3246060821e+02 2.6393736827e+02 1.2500000000e+02 0.0000e+00 0.0000e+00
      -15  1    3    3    0    0 +1.6861641615e+01 -3.4696027153e+01 +7.2773212821e+01 8.2384631403e+01 1.7770000000e+00 0.0000e+00 -1.0000e+00
       15  1    3    3    0    0 +3.0671357476e+01 +7.7411175676e+00 +6.1671507584e+01 6.9333899698e+01 1.7770000000e+00 0.0000e+00 -1.0000e+00
       22  1    3    3    0    0 -4.7532999092e+01 +2.6954909585e+01 +9.8015887806e+01 1.1221883717e+02 0.0000000000e+00 0.0000e+00 -1.0000e+00
<mgrwt>
<rscale>  2 0.12500000E+03</rscale>
<asrwt>0</asrwt>
<pdfrwt beam="1">  1       21 0.36499849E-01 0.12500000E+03</pdfrwt>
<pdfrwt beam="2">  1       21 0.23144678E-02 0.12500000E+03</pdfrwt>
<totfact> 0.68244194E+06</totfact>
</mgrwt>
</event>
<event>
 6      0 +1.3698540e+00 1.25000000e+02 7.54677100e-03 1.12640300e-01
       21 -1    0    0  502  501 +0.0000000000e+00 +0.0000000000e+00 +2.8857768597e+02 2.8857768597e+02 0.0000000000e+00 0.0000e+00 1.0000e+00
       21 -1    0    0  501  502 -0.0000000000e+00 -0.0000000000e+00 -1.3536216381e+01 1.3536216381e+01 0.0000000000e+00 0.0000e+00 1.0000e+00
       25  2    1    2    0    0 +0.0000000000e+00 +0.0000000000e+00 +2.7504146959e+02 3.0211390235e+02 1.2500000000e+02 0.0000e+00 0.0000e+00
      -15  1    3    3    0    0 +1.4166018264e+01 -3.3081359198e+01 +1.3134197744e+02 1.3619443882e+02 1.7770000000e+00 0.0000e+00 -1.0000e+00
       15  1    3    3    0    0 -3.3479415675e+01 -8.1044823280e+00 +8.4443841567e+01 9.1216632339e+01 1.7770000000e+00 0.0000e+00 -1.0000e+00
       22  1    3    3    0    0 +1.9313397410e+01 +4.1185841526e+01 +5.9255650595e+01 7.4702831199e+01 0.0000000000e+00 0.0000e+00 -1.0000e+00
<mgrwt>
<rscale>  2 0.12500000E+03</rscale>
<asrwt>0</asrwt>
<pdfrwt beam="1">  1       21 0.42437891E-01 0.12500000E+03</pdfrwt>
<pdfrwt beam="2">  1       21 0.19906202E-02 0.12500000E+03</pdfrwt>
<totfact> 0.63707827E+06</totfact>
</mgrwt>
</event>
<event>
 6      0 +1.3698540e+00 1.25000000e+02 7.54677100e-03 1.12640300e-01
       21 -1    0    0  502  501 +0.0000000000e+00 +0.0000000000e+00 +7.7821590293e+00 7.7821590293e+00 0.0000000000e+00 0.0000e+00 1.0000e+00
       21 -1    0    0  501  502 -0.0000000000e+00 -0.0000000000e+00 -5.0194939288e+02 5.0194939288e+02 0.0000000000e+00 0.0000e+00 1.0000e+00
       25  2    1    2    0    0 +0.0000000000e+00 +0.0000000000e+00 -4.9416723385e+02 5.0973155191e+02 1.2500000000e+02 0.0000e+00 0.0000e+00
      -15  1    3    3    0    0 +2.9841449045e+01 -1.5785356726e+01 -3.2744375298e+01 4.7064226444e+01 1.7770000000e+00 0.0000e+00 1.0000e+00
       15  1    3    3    0    0 -2.9859405945e+01 +1.5790725680e+01 -4.6139823694e+02 4.6263638196e+02 1.7770000000e+00 0.0000e+00 1.0000e+00
       22  1    3    3    0    0 +1.7956900155e-02 -5.3689535930e-03 -2.4621588315e-02 3.0943473254e-02 0.0000000000e+00 0.0000e+00 -1.0000e+00
<mgrwt>
<rscale>  2 0.12500000E+03</rscale>
<asrwt>0</asrwt>
<pdfrwt beam="1">  1       21 0.11444356E-02 0.12500000E+03</pdfrwt>
<pdfrwt beam="2">  1       21 0.73816061E-01 0.12500000E+03</pdfrwt>
<totfact> 0.44610041E+06</totfact>
</mgrwt>
</event>
<event>
 6      0 +1.3698540e+00 1.25000000e+02 7.54677100e-03 1.12640300e-01
       21 -1    0    0  502  501 +0.0000000000e+00 +0.0000000000e+00 +1.1859470650e+01 1.1859470650e+01 0.0000000000e+00 0.0000e+00 1.0000e+00
       21 -1    0    0  501  502 -0.0000000000e+00 -0.0000000000e+00 -3.2937810763e+02 3.2937810763e+02 0.0000000000e+00 0.0000e+00 1.0000e+00
       25  2    1    2    0    0 +0.0000000000e+00 +0.0000000000e+00 -3.1751863698e+02 3.4123757828e+02 1.2500000000e+02 0.0000e+00 0.0000e+00
      -15  1    3    3    0    0 -3.7188849381e+01 -2.4610853422e+01 -2.7820171441e+02 2.8175886189e+02 1.7770000000e+00 0.0000e+00 -1.0000e+00
       15  1    3    3    0    0 +3.7188924694e+01 +2.4610909404e+01 -3.9316283311e+01 5.9478070278e+01 1.7770000000e+00 0.0000e+00 -1.0000e+00
       22  1    3    3    0    0 -7.5313846333e-05 -5.5982199501e-05 -6.3924835593e-04 6.4609956096e-04 0.0000000000e+00 0.0000e+00 1.0000e+00
<mgrwt>
<rscale>  2 0.12500000E+03</rscale>
<asrwt>0</asrwt>
<pdfrwt beam="1">  1       21 0.17440395E-02 0.12500000E+03</pdfrwt>
<pdfrwt beam="2">  1       21 0.48437965E-01 0.12500000E+03</pdfrwt>
<totfact> 0.59435149E+06</totfact>
</mgrwt>
</event>
<event>
 6      0 +1.3698540e+00 1.25000000e+02 7.54677100e-03 1.12640300e-01
       21 -1    0    0  502  501 +0.0000000000e+00 +0.0000000000e+00 +4.5587559845e+01 4.5587559845e+01 0.0000000000e+00 0.0000e+00 -1.0000e+00
       21 -1    0    0  501  502 -0.0000000000e+00 -0.0000000000e+00 -8.5686753433e+01 8.5686753433e+01 0.0000000000e+00 0.0000e+00 -1.0000e+00
       25  2    1    2    0    0 +0.0000000000e+00 +0.0000000000e+00 -4.0099193588e+01 1.3127431328e+02 1.2500000000e+02 0.0000e+00 0.0000e+00
      -15  1    3    3    0    0 +1.0166182290e+00 +8.2930487425e+00 +1.0328010969e+00 8.6042185685e+00 1.7770000000e+00 0.0000e+00 -1.0000e+00
       15  1    3    3    0    0 -3.7150738599e+01 +3.6876093465e+01 -1.2140559223e+00 5.2389457990e+01 1.7770000000e+00 0.0000e+00 -1.0000e+00
       22  1    3    3    0    0 +3.6134120370e+01 -4.5169142207e+01 -3.9917938762e+01 7.0280636719e+01 0.0000000000e+00 0.0000e+00 -1.0000e+00
<mgrwt>
<rscale>  2 0.12500000E+03</rscale>
<asrwt>0</asrwt>
<pdfrwt beam="1">  1       21 0.67040530E-02 0.12500000E+03</pdfrwt>
<pdfrwt beam="2">  1       21 0.12600993E-01 0.12500000E+03</pdfrwt>
<totfact> 0.87866554E+06</totfact>
</mgrwt>
</event>
<event>
 6      0 +1.3698540e+00 1.25000000e+02 7.54677100e-03 1.12640300e-01
       21 -1    0    0  502  501 +0.0000000000e+00 +0.0000000000e+00 +1.2538075557e+01 1.2538075557e+01 0.0000000000e+00 0.0000e+00 -1.0000e+00
       21 -1    0    0  501  502 -0.0000000000e+00 -0.0000000000e+00 -3.1155100177e+02 3.1155100177e+02 0.0000000000e+00 0.0000e+00 -1.0000e+00
       25  2    1    2    0    0 +0.0000000000e+00 +0.0000000000e+00 -2.9901292621e+02 3.2408907733e+02 1.2500000000e+02 0.0000e+00 0.0000e+00
      -15  1    3    3    0    0 +5.8640497337e+01 +2.0429776236e+01 -1.3175536916e+02 1.4566646394e+02 1.7770000000e+00 0.0000e+00 -1.0000e+00
       15  1    3    3    0    0 -5.7101677469e+01 -1.9971130347e+01 -1.6294754556e+02 1.7382320890e+02 1.7770000000e+00 0.0000e+00 -1.0000e+00
       22  1    3    3    0    0 -1.5388198675e+00 -4.5864588930e-01 -4.3100114445e+00 4.5994044493e+00 0.0000000000e+00 0.0000e+00 1.0000e+00
<mgrwt>
<rscale>  2 0.12500000E+03</rscale>
<asrwt>0</asrwt>
<pdfrwt beam="1">  1       21 0.18438349E-02 0.12500000E+03</pdfrwt>
<pdfrwt beam="2">  1       21 0.45816318E-01 0.12500000E+03</pdfrwt>
<totfact> 0.61260404E+06</totfact>
</mgrwt>
</event>
<event>
 6      0 +1.3698540e+00 1.25000000e+02 7.54677100e-03 1.12640300e-01
       21 -1    0    0  502  501 +0.0000000000e+00 +0.0000000000e+00 +1.0518524094e+02 1.0518524094e+02 0.0000000000e+00 0.0000e+00 1.0000e+00
       21 -1    0    0  501  502 -0.0000000000e+00 -0.0000000000e+00 -3.7136864116e+01 3.7136864116e+01 0.0000000000e+00 0.0000e+00 1.0000e+00
       25  2    1    2    0    0 +0.0000000000e+00 +0.0000000000e+00 +6.8048376828e+01 1.4232210506e+02 1.2500000000e+02 0.0000e+00 0.0000e+00
      -15  1    3    3    0    0 -4.5824582111e+01 -2.0614469671e+01 +4.4689477386e+01 6.7269278304e+01 1.7770000000e+00 0.0000e+00 -1.0000e+00
       15  1    3    3    0    0 +1.5645198297e+01 -8.3009973041e+00 -1.1019395965e+01 2.0934746295e+01 1.7770000000e+00 0.0000e+00 -1.0000e+00
       22  1    3    3    0    0 +3.0179383814e+01 +2.8915466975e+01 +3.4378295407e+01 5.4118080462e+01 0.0000000000e+00 0.0000e+00 -1.0000e+00
<mgrwt>
<rscale>  2 0.12500000E+03</rscale>
<asrwt>0</asrwt>
<pdfrwt beam="1">  1       21 0.15468418E-01 0.12500000E+03</pdfrwt>
<pdfrwt beam="2">  1       21 0.54613036E-02 0.12500000E+03</pdfrwt>
<totfact> 0.85937946E+06</totfact>
</mgrwt>
</event>
<event>
 6      0 +1.3698540e+00 1.25000000e+02 7.54677100e-03 1.12640300e-01
       21 -1    0    0  502  501 +0.0000000000e+00 +0.0000000000e+00 +7.1266741617e+01 7.1266741617e+01 0.0000000000e+00 0.0000e+00 -1.0000e+00
       21 -1    0    0  501  502 -0.0000000000e+00 -0.0000000000e+00 -5.4811682299e+01 5.4811682299e+01 0.0000000000e+00 0.0000e+00 -1.0000e+00
       25  2    1    2    0    0 +0.0000000000e+00 +0.0000000000e+00 +1.6455059318e+01 1.2607842392e+02 1.2500000000e+02 0.0000e+00 0.0000e+00
      -15  1    3    3    0    0 +5.4646090643e+01 -1.3609626476e+00 -7.4030297946e+00 5.5190669692e+01 1.7770000000e+00 0.0000e+00 -1.0000e+00
       15  1    3    3    0    0 +1.4588521341e+00 +9.5493498290e+00 +1.4846385278e+00 9.9337914344e+00 1.7770000000e+00 0.0000e+00 -1.0000e+00
       22  1    3    3    0    0 -5.6104942777e+01 -8.1883871814e+00 +2.2373450584e+01 6.0953962789e+01 0.0000000000e+00 0.0000e+00 -1.0000e+00
<mgrwt>
<rscale>  2 0.12500000E+03</rscale>
<asrwt>0</asrwt>
<pdfrwt beam="1">  1       21 0.10480403E-01 0.12500000E+03</pdfrwt>
<pdfrwt beam="2">  1       21 0.80605415E-02 0.12500000E+03</pdfrwt>
<totfact> 0.88797604E+06</totfact>
</mgrwt>
</event>
<event>
 6      0 +1.3698540e+00 1.25000000e+02 7.54677100e-03 1.12640300e-01
       21 -1    0    0  502  501 +0.0000000000e+00 +0.0000000000e+00 +5.4615588043e+02 5.4615588043e+02 0.0000000000e+00 0.0000e+00 -1.0000e+00
       21 -1    0    0  501  502 -0.0000000000e+00 -0.0000000000e+00 -7.1522620922e+00 7.1522620922e+00 0.0000000000e+00 0.0000e+00 -1.0000e+00
       25  2    1    2    0    0 +0.0000000000e+00 +0.0000000000e+00 +5.3900361834e+02 5.5330814252e+02 1.2500000000e+02 0.0000e+00 0.0000e+00
      -15  1    3    3    0    0 +4.6934450946e+00 -3.4854628271e+01 +1.3695960995e+02 1.4141416487e+02 1.7770000000e+00 0.0000e+00 -1.0000e+00
       15  1    3    3    0    0 +1.7454804862e+01 +1.5035818841e+01 +2.6431200237e+01 3.5107152205e+01 1.7770000000e+00 0.0000e+00 -1.0000e+00
       22  1    3    3    0    0 -2.2148249956e+01 +1.9818809430e+01 +3.7561280823e+02 3.7678682552e+02 0.0000000000e+00 0.0000e+00 -1.0000e+00
<mgrwt>
<rscale>  2 0.12500000E+03</rscale>
<asrwt>0</asrwt>
<pdfrwt beam="1">  1       21 0.80317013E-01 0.12500000E+03</pdfrwt>
<pdfrwt beam="2">  1       21 0.10518036E-02 0.12500000E+03</pdfrwt>
<totfact> 0.41572141E+06</totfact>
</mgrwt>
</event>
<event>
 6      0 +1.3698540e+00 1.25000000e+02 7.54677100e-03 1.12640300e-01
       21 -1    0    0  502  501 +0.0000000000e+00 +0.0000000000e+00 +1.4976566107e+02 1.4976566107e+02 0.0000000000e+00 0.0000e+00 1.0000e+00
       21 -1    0    0  501  502 -0.0000000000e+00 -0.0000000000e+00 -2.6082414166e+01 2.6082414166e+01 0.0000000000e+00 0.0000e+00 1.0000e+00
       25  2    1    2    0    0 +0.0000000000e+00 +0.0000000000e+00 +1.2368324691e+02 1.7584807524e+02 1.2500000000e+02 0.0000e+00 0.0000e+00
      -15  1    3    3    0    0 +3.9213997425e+01 +2.3345465600e+01 +5.1940383336e+01 6.9164365884e+01 1.7770000000e+00 0.0000e+00 -1.0000e+00
       15  1    3    3    0    0 +1.2745244432e+01 -1.3090982496e+01 +4.2246446172e+01 4.6062295010e+01 1.7770000000e+00 0.0000e+00 -1.0000e+00
       22  1    3    3    0    0 -5.1959241857e+01 -1.0254483103e+01 +2.9496417405e+01 6.0621414351e+01 0.0000000000e+00 0.0000e+00 -1.0000e+00
<mgrwt>
<rscale>  2 0.12500000E+03</rscale>
<asrwt>0</asrwt>
<pdfrwt beam="1">  1       21 0.22024362E-01 0.12500000E+03</pdfrwt>
<pdfrwt beam="2">  1       21 0.38356492E-02 0.12500000E+03</pdfrwt>
<totfact> 0.80446335E+06</totfact>
</mgrwt>
</event>
<event>
 6      0 +1.3698540e+00 1.25000000e+02 7.54677100e-03 1.12640300e-01
       21 -1    0    0  502  501 +0.0000000000e+00 +0.0000000000e+00 +3.5199037257e+01 3.5199037257e+01 0.0000000000e+00 0.0000e+00 1.0000e+00
       21 -1    0    0  501  502 -0.0000000000e+00 -0.0000000000e+00 -1.1097604663e+02 1.1097604663e+02 0.0000000000e+00 0.0000e+00 1.0000e+00
       25  2    1    2    0    0 +0.0000000000e+00 +0.0000000000e+00 -7.5777009376e+01 1.4617508389e+02 1.2500000000e+02 0.0000e+00 0.0000e+00
      -15  1    3    3    0    0 +4.0529172218e+01 -1.9469037309e+00 -9.3439489985e+01 1.0188474004e+02 1.7770000000e+00 0.0000e+00 1.0000e+00
       15  1    3    3    0    0 -4.0487193542e+01 +1.9374730633e+00 +1.7651746431e+01 4.4246000089e+01 1.7770000000e+00 0.0000e+00 1.0000e+00
       22  1    3    3    0    0 -4.1978675706e-02 +9.4306675806e-03 +1.0734178946e-02 4.4343762839e-02 0.0000000000e+00 0.0000e+00 1.0000e+00
<mgrwt>
<rscale>  2 0.12500000E+03</rscale>
<asrwt>0</asrwt>
<pdfrwt beam="1">  1       21 0.51763290E-02 0.12500000E+03</pdfrwt>
<pdfrwt beam="2">  1       21 0.16320007E-01 0.12500000E+03</pdfrwt>
<totfact> 0.85272818E+06</totfact>
</mgrwt>
</event>
<event>
 6      0 +1.3698540e+00 1.25000000e+02 7.54677100e-03 1.12640300e-01
       21 -1    0    0  502  501 +0.0000000000e+00 +0.0000000000e+00 +2.6046642199e+01 2.6046642199e+01 0.0000000000e+00 0.0000e+00 1.0000e+00
       21 -1    0    0  501  502 -0.0000000000e+00 -0.0000000000e+00 -1.4997134641e+02 1.4997134641e+02 0.0000000000e+00 0.0000e+00 1.0000e+00
       25  2    1    2    0    0 +0.0000000000e+00 +0.0000000000e+00 -1.2392470421e+02 1.7601798861e+02 1.2500000000e+02 0.0000e+00 0.0000e+00
      -15  1    3    3    0    0 -3.2411540071e+01 +1.6827226378e+00 +1.2879411322e+01 3.4962500630e+01 1.7770000000e+00 0.0000e+00 -1.0000e+00
       15  1    3    3    0    0 +2.7589881199e+01 -1.8682878509e+00 -9.4554606328e+01 9.8531331823e+01 1.7770000000e+00 0.0000e+00 -1.0000e+00
       22  1    3    3    0    0 +4.8216588726e+00 +1.8556521315e-01 -4.2249509202e+01 4.2524156153e+01 0.0000000000e+00 0.0000e+00 -1.0000e+00
<mgrwt>
<rscale>  2 0.12500000E+03</rscale>
<asrwt>0</asrwt>
<pdfrwt beam="1">  1       21 0.38303886E-02 0.12500000E+03</pdfrwt>
<pdfrwt beam="2">  1       21 0.22054609E-01 0.12500000E+03</pdfrwt>
<totfact> 0.80419964E+06</totfact>
</mgrwt>
</event>
<event>
 6      0 +1.3698540e+00 1.25000000e+02 7.54677100e-03 1.12640300e-01
       21 -1    0    0  502  501 +0.0000000000e+00 +0.0000000000e+00 +1.5344596801e+02 1.5344596801e+02 0.0000000000e+00 0.0000e+00 -1.0000e+00
       21 -1    0    0  501  502 -0.0000000000e+00 -0.0000000000e+00 -2.5456843543e+01 2.5456843543e+01 0.0000000000e+00 0.0000e+00 -1.0000e+00
       25  2    1    2    0    0 +0.0000000000e+00 +0.0000000000e+00 +1.2798912447e+02 1.7890281156e+02 1.2500000000e+02 0.0000e+00 0.0000e+00
      -15  1    3    3    0    0 -1.5628944280e+01 +5.6396137116e+00 +3.1997830038e+01 3.6098310186e+01 1.7770000000e+00 0.0000e+00 -1.0000e+00
       15  1    3    3    0    0 -3.2937238670e+01 -1.6199307804e+01 +8.3986581192e+01 9.1674330180e+01 1.7770000000e+00 0.0000e+00 -1.0000e+00
       22  1    3    3    0    0 +4.8566182950e+01 +1.0559694093e+01 +1.2004713235e+01 5.1130171187e+01 0.0000000000e+00 0.0000e+00 -1.0000e+00
<mgrwt>
<rscale>  2 0.12500000E+03</rscale>
<asrwt>0</asrwt>
<pdfrwt beam="1">  1       21 0.22565583E-01 0.12500000E+03</pdfrwt>
<pdfrwt beam="2">  1       21 0.37436535E-02 0.12500000E+03</pdfrwt>
<totfact> 0.79974622E+06</totfact>
</mgrwt>
</event>
<event>
 6      0 +1.3698540e+00 1.25000000e+02 7.54677100e-03 1.12640300e-01
       21 -1    0    0  502  501 +0.0000000000e+00 +0.0000000000e+00 +9.9665633596e+01 9.9665633596e+01 0.0000000000e+00 0.0000e+00 1.0000e+00
       21 -1    0    0  501  502 -0.0000000000e+00 -0.0000000000e+00 -3.9193550064e+01 3.9193550064e+01 0.0000000000e+00 0.0000e+00 1.0000e+00
       25  2    1    2    0    0 +0.0000000000e+00 +0.0000000000e+00 +6.0472083532e+01 1.3885918366e+02 1.2500000000e+02 0.0000e+00 0.0000e+00
      -15  1    3    3    0    0 -4.5101975443e+01 -5.7969047028e+00 -1.6976377216e+01 4.8571055222e+01 1.7770000000e+00 0.0000e+00 -1.0000e+00
       15  1    3    3    0    0 +4.5065340353e+01 +6.5719378117e+00 +7.5488748883e+01 8.8180407148e+01 1.7770000000e+00 0.0000e+00 -1.0000e+00
       22  1    3    3    0    0 +3.6635089393e-02 -7.7503310888e-01 +1.9597118642e+00 2.1077212910e+00 0.0000000000e+00 0.0000e+00 1.0000e+00
<mgrwt>
<rscale>  2 0.12500000E+03</rscale>
<asrwt>0</asrwt>
<pdfrwt beam="1">  1       21 0.14656711E-01 0.12500000E+03</pdfrwt>
<pdfrwt beam="2">  1       21 0.57637574E-02 0.12500000E+03</pdfrwt>
<totfact> 0.86537297E+06</totfact>
</mgrwt>
</event>
<event>
 6      0 +1.3698540e+00 1.25000000e+02 7.54677100e-03 1.12640300e-01
       21 -1    0    0  502  501 +0.0000000000e+00 +0.0000000000e+00 +6.9830145553e+01 6.9830145553e+01 0.0000000000e+00 0.0000e+00 -1.0000e+00
       21 -1    0    0  501  502 -0.0000000000e+00 -0.0000000000e+00 -5.5939307717e+01 5.5939307717e+01 0.0000000000e+00 0.0000e+00 -1.0000e+00
       25  2    1    2    0    0 +0.0000000000e+00 +0.0000000000e+00 +1.3890837836e+01 1.2576945327e+02 1.2500000000e+02 0.0000e+00 0.0000e+00
      -15  1    3    3    0    0 -1.2521959215e+01 -1.0572569520e+01 +1.7723861797e+01 2.4204786610e+01 1.7770000000e+00 0.0000e+00 -1.0000e+00
       15  1    3    3    0    0 -1.3157822903e+01 +3.0918352373e+00 +4.4381472945e+01 4.6428015448e+01 1.7770000000e+00 0.0000e+00 -1.0000e+00
       22  1    3    3    0    0 +2.5679782118e+01 +7.4807342826e+00 -4.8214496905e+01 5.5136651212e+01 0.0000000000e+00 0.0000e+00 -1.0000e+00
<mgrwt>
<rscale>  2 0.12500000E+03</rscale>
<asrwt>0</asrwt>
<pdfrwt beam="1">  1       21 0.10269139E-01 0.12500000E+03</pdfrwt>
<pdfrwt beam="2">  1       21 0.82263688E-02 0.12500000E+03</pdfrwt>
<totfact> 0.88853681E+06</totfact>
</mgrwt>
</event>
<event>
 6      0 +1.3698540e+00 1.25000000e+02 7.54677100e-03 1.12640300e-01
       21 -1    0    0  502  501 +0.0000000000e+00 +0.0000000000e+00 +5.9006789805e+01 5.9006789805e+01 0.0000000000e+00 0.0000e+00 -1.0000e+00
       21 -1    0    0  501  502 -0.0000000000e+00 -0.0000000000e+00 -6.6200008726e+01 6.6200008726e+01 0.0000000000e+00 0.0000e+00 -1.0000e+00
       25  2    1    2    0    0 +0.0000000000e+00 +0.0000000000e+00 -7.1932189205e+00 1.2520679853e+02 1.2500000000e+02 0.0000e+00 0.0000e+00
      -15  1    3    3    0    0 -1.1245908643e+01 -1.6655816086e+01 -9.7536313024e+00 2.2409322240e+01 1.7770000000e+00 0.0000e+00 -1.0000e+00
       15  1    3    3    0    0 -1.9501225837e+01 -2.7543554206e+01 +2.7395010807e+01 4.3503902509e+01 1.7770000000e+00 0.0000e+00 -1.0000e+00
       22  1    3    3    0    0 +3.0747134479e+01 +4.4199370292e+01 -2.4834598426e+01 5.9293573781e+01 0.0000000000e+00 0.0000e+00 -1.0000e+00
<mgrwt>
<rscale>  2 0.12500000E+03</rscale>
<asrwt>0</asrwt>
<pdfrwt beam="1">  1       21 0.86774691E-02 0.12500000E+03</pdfrwt>
<pdfrwt beam="2">  1       21 0.97352954E-02 0.12500000E+03</pdfrwt>
<totfact> 0.88959446E+06</totfact>
</mgrwt>
</event>
<event>
 6      0 +1.3698540e+00 1.25000000e+02 7.54677100e-03 1.12640300e-01
       21 -1    0    0  502  501 +0.0000000000e+00 +0.0000000000e+00 +2.3770255139e+01 2.3770255139e+01 0.0000000000e+00 0.0000e+00 1.0000e+00
       21 -1    0    0  501  502 -0.0000000000e+00 -0.0000000000e+00 -1.6433353269e+02 1.6433353269e+02 0.0000000000e+00 0.0000e+00 1.0000e+00
       25  2    1    2    0    0 +0.0000000000e+00 +0.0000000000e+00 -1.4056327755e+02 1.8810378783e+02 1.2500000000e+02 0.0000e+00 0.0000e+00
      -15  1    3    3    0    0 +5.0437073582e+00 +2.6985181003e+01 +1.4856003484e+00 2.7550022051e+01 1.7770000000e+00 0.0000e+00 -1.0000e+00
       15  1    3    3    0    0 +2.3746512929e+01 -3.5533206973e+01 -6.4519156223e+01 7.7410496206e+01 1.7770000000e+00 0.0000e+00 -1.0000e+00
       22  1    3    3    0    0 -2.8790220287e+01 +8.5480259700e+00 -7.7529721672e+01 8.3143269570e+01 0.0000000000e+00 0.0000e+00 -1.0000e+00
<mgrwt>
<rscale>  2 0.12500000E+03</rscale>
<asrwt>0</asrwt>
<pdfrwt beam="1">  1       21 0.34956257E-02 0.12500000E+03</pdfrwt>
<pdfrwt beam="2">  1       21 0.24166696E-01 0.12500000E+03</pdfrwt>
<totfact> 0.78581029E+06</totfact>
</mgrwt>
</event>
<event>
 6      0 +1.3698540e+00 1.25000000e+02 7.54677100e-03 1.12640300e-01
       21 -1    0    0  502  501 +0.0000000000e+00 +0.0000000000e+00 +3.5964394276e+00 3.5964394276e+00 0.0000000000e+00 0.0000e+00 -1.0000e+00
       21 -1    0    0  501  502 -0.0000000000e+00 -0.0000000000e+00 -1.0861436926e+03 1.0861436926e+03 0.0000000000e+00 0.0000e+00 -1.0000e+00
       25  2    1    2    0    0 +0.0000000000e+00 +0.0000000000e+00 -1.0825472531e+03 1.0897401320e+03 1.2500000000e+02 0.0000e+00 0.0000e+00
      -15  1    3    3    0    0 +1.1100218766e+00 -3.8484765891e+01 -1.1233925019e+02 1.1876689024e+02 1.7770000000e+00 0.0000e+00 1.0000e+00
       15  1    3    3    0    0 -1.1100219440e+00 +3.8484766330e+01 -9.7020799824e+02 9.7097323699e+02 1.7770000000e+00 0.0000e+00 1.0000e+00
       22  1    3    3    0    0 +6.7402314774e-08 -4.3938996399e-07 -1.3096589914e-06 1.3830449328e-06 0.0000000000e+00 0.0000e+00 1.0000e+00
<mgrwt>
<rscale>  2 0.12500000E+03</rscale>
<asrwt>0</asrwt>
<pdfrwt beam="1">  1       21 0.52888805E-03 0.12500000E+03</pdfrwt>
<pdfrwt beam="2">  1       21 0.15972704E+00 0.12500000E+03</pdfrwt>
<totfact> 0.18672732E+06</totfact>
</mgrwt>
</event>
<event>
 6      0 +1.3698540e+00 1.25000000e+02 7.54677100e-03 1.12640300e-01
       21 -1    0    0  502  501 +0.0000000000e+00 +0.0000000000e+00 +1.5098192428e+01 1.5098192428e+01 0.0000000000e+00 0.0000e+00 -1.0000e+00
       21 -1    0    0  501  502 -0.0000000000e+00 -0.0000000000e+00 -2.5872302388e+02 2.5872302388e+02 0.0000000000e+00 0.0000e+00 -1.0000e+00
       25  2    1    2    0    0 +0.0000000000e+00 +0.0000000000e+00 -2.4362483145e+02 2.7382121631e+02 1.2500000000e+02 0.0000e+00 0.0000e+00
      -15  1    3    3    0    0 +3.2984570713e+00 -2.2559548233e+01 -1.0905518587e+02 1.1142712565e+02 1.7770000000e+00 0.0000e+00 -1.0000e+00
       15  1    3    3    0    0 +1.1712096442e+01 -8.4612364260e+00 -1.2605940320e+02 1.2689718905e+02 1.7770000000e+00 0.0000e+00 -1.0000e+00
       22  1    3    3    0    0 -1.5010553513e+01 +3.1020784659e+01 -8.5102423625e+00 3.5496901593e+01 0.0000000000e+00 0.0000e+00 -1.0000e+00
<mgrwt>
<rscale>  2 0.12500000E+03</rscale>
<asrwt>0</asrwt>
<pdfrwt beam="1">  1       21 0.22203225E-02 0.12500000E+03</pdfrwt>
<pdfrwt beam="2">  1       21 0.38047502E-01 0.12500000E+03</pdfrwt>
<totfact> 0.67033801E+06</totfact>
</mgrwt>
</event>
<event>
 6      0 +1.3698540e+00 1.25000000e+02 7.54677100e-03 1.12640300e-01
       21 -1    0    0  502  501 +0.0000000000e+00 +0.0000000000e+00 +1.7741346839e+02 1.7741346839e+02 0.0000000000e+00 0.0000e+00 -1.0000e+00
       21 -1    0    0  501  502 -0.0000000000e+00 -0.0000000000e+00 -2.2017775964e+01 2.2017775964e+01 0.0000000000e+00 0.0000e+00 -1.0000e+00
       25  2    1    2    0    0 +0.0000000000e+00 +0.0000000000e+00 +1.5539569242e+02 1.9943124435e+02 1.2500000000e+02 0.0000e+00 0.0000e+00
      -15  1    3    3    0    0 -3.1376776279e+01 +1.8293122228e+01 +2.0125933128e+00 3.6419070161e+01 1.7770000000e+00 0.0000e+00 -1.0000e+00
       15  1    3    3    0    0 +1.0905273683e+01 -1.3457246897e+01 +1.4830449905e+01 2.2871870529e+01 1.7770000000e+00 0.0000e+00 -1.0000e+00
       22  1    3    3    0    0 +2.0471502596e+01 -4.8358753306e+00 +1.3855264920e+02 1.4014030366e+02 0.0000000000e+00 0.0000e+00 -1.0000e+00
<mgrwt>
<rscale>  2 0.12500000E+03</rscale>
<asrwt>0</asrwt>
<pdfrwt beam="1">  1       21 0.26090215E-01 0.12500000E+03</pdfrwt>
<pdfrwt beam="2">  1       21 0.32379083E-02 0.12500000E+03</pdfrwt>
<totfact> 0.76901951E+06</totfact>
</mgrwt>
</event>
<event>
 6      0 +1.3698540e+00 1.25000000e+02 7.54677100e-03 1.12640300e-01
       21 -1    0    0  502  501 +0.0000000000e+00 +0.0000000000e+00 +1.1099459853e+02 1.1099459853e+02 0.0000000000e+00 0.0000e+00 1.0000e+00
       21 -1    0    0  501  502 -0.0000000000e+00 -0.0000000000e+00 -3.5193154008e+01 3.5193154008e+01 0.0000000000e+00 0.0000e+00 1.0000e+00
       25  2    1    2    0    0 +0.0000000000e+00 +0.0000000000e+00 +7.5801444519e+01 1.4618775253e+02 1.2500000000e+02 0.0000e+00 0.0000e+00
      -15  1    3    3    0    0 -8.6242419913e+00 +5.0451261963e+01 +7.9797354367e+01 9.4818156893e+01 1.7770000000e+00 0.0000e+00 1.0000e+00
       15  1    3    3    0    0 +8.6242437013e+00 -5.0451271339e+01 -3.9959251321e+00 5.1369577629e+01 1.7770000000e+00 0.0000e+00 1.0000e+00
       22  1    3    3    0    0 -1.7100024508e-06 +9.3755640790e-06 +1.5286652209e-05 1.8014079103e-05 0.0000000000e+00 0.0000e+00 1.0000e+00
<mgrwt>
<rscale>  2 0.12500000E+03</rscale>
<asrwt>0</asrwt>
<pdfrwt beam="1">  1       21 0.16322735E-01 0.12500000E+03</pdfrwt>
<pdfrwt beam="2">  1       21 0.51754638E-02 0.12500000E+03</pdfrwt>
<totfact> 0.85270654E+06</totfact>
</mgrwt>
</event>
<event>
 6      0 +1.3698540e+00 1.25000000e+02 7.54677100e-03 1.12640300e-01
       21 -1    0    0  502  501 +0.0000000000e+00 +0.0000000000e+00 +9.0631170524e+00 9.0631170524e+00 0.0000000000e+00 0.0000e+00 1.0000e+00
       21 -1    0    0  501  502 -0.0000000000e+00 -0.0000000000e+00 -4.3100513625e+02 4.3100513625e+02 0.0000000000e+00 0.0000e+00 1.0000e+00
       25  2    1    2    0    0 +0.0000000000e+00 +0.0000000000e+00 -4.2194201920e+02 4.4006825330e+02 1.2500000000e+02 0.0000e+00 0.0000e+00
      -15  1    3    3    0    0 -2.1360934064e+01 +4.7109281872e+01 -8.7625315729e+01 1.0176899149e+02 1.7770000000e+00 0.0000e+00 -1.0000e+00
       15  1    3    3    0    0 +2.1360936429e+01 -4.7109283393e+01 -3.3431669618e+02 3.3829925400e+02 1.7770000000e+00 0.0000e+00 -1.0000e+00
       22  1    3    3    0    0 -2.3644399861e-06 +1.5204791990e-06 -7.3463311165e-06 7.8658130104e-06 0.0000000000e+00 0.0000e+00 1.0000e+00
<mgrwt>
<rscale>  2 0.12500000E+03</rscale>
<asrwt>0</asrwt>
<pdfrwt beam="1">  1       21 0.13328107E-02 0.12500000E+03</pdfrwt>
<pdfrwt beam="2">  1       21 0.63383137E-01 0.12500000E+03</pdfrwt>
<totfact> 0.50109537E+06</totfact>
</mgrwt>
</event>
<event>
 6      0 +1.3698540e+00 1.25000000e+02 7.54677100e-03 1.12640300e-01
       21 -1    0    0  502  501 +0.0000000000e+00 +0.0000000000e+00 +1.1614155700e+01 1.1614155700e+01 0.0000000000e+00 0.0000e+00 -1.0000e+00
       21 -1    0    0  501  502 -0.0000000000e+00 -0.0000000000e+00 -3.3633525338e+02 3.3633525338e+02 0.0000000000e+00 0.0000e+00 -1.0000e+00
       25  2    1    2    0    0 +0.0000000000e+00 +0.0000000000e+00 -3.2472109768e+02 3.4794940908e+02 1.2500000000e+02 0.0000e+00 0.0000e+00
      -15  1    3    3    0    0 +2.9119715053e+01 -2.3021993258e+01 -4.2864548972e+01 5.6731801187e+01 1.7770000000e+00 0.0000e+00 -1.0000e+00
       15  1    3    3    0    0 -3.1477936352e+01 -1.0128783553e+01 -7.9049898370e+01 8.5705874329e+01 1.7770000000e+00 0.0000e+00 -1.0000e+00
       22  1    3    3    0    0 +2.3582212996e+00 +3.3150776811e+01 -2.0280665033e+02 2.0551173355e+02 0.0000000000e+00 0.0000e+00 -1.0000e+00
<mgrwt>
<rscale>  2 0.12500000E+03</rscale>
<asrwt>0</asrwt>
<pdfrwt beam="1">  1       21 0.17079639E-02 0.12500000E+03</pdfrwt>
<pdfrwt beam="2">  1       21 0.49461072E-01 0.12500000E+03</pdfrwt>
<totfact> 0.58739467E+06</totfact>
</mgrwt>
</event>
<event>
 6      0 +1.3698540e+00 1.25000000e+02 7.54677100e-03 1.12640300e-01
       21 -1    0    0  502  501 +0.0000000000e+00 +0.0000000000e+00 +1.0626171156e+02 1.0626171156e+02 0.0000000000e+00 0.0000e+00 -1.0000e+00
       21 -1    0    0  501  502 -0.0000000000e+00 -0.0000000000e+00 -3.6760653885e+01 3.6760653885e+01 0.0000000000e+00 0.0000e+00 -1.0000e+00
       25  2    1    2    0    0 +0.0000000000e+00 +0.0000000000e+00 +6.9501057678e+01 1.4302236545e+02 1.2500000000e+02 0.0000e+00 0.0000e+00
      -15  1    3    3    0    0 +2.9103472063e+01 -5.7322085904e+00 +5.2953325165e+01 6.0721352723e+01 1.7770000000e+00 0.0000e+00 -1.0000e+00
       15  1    3    3    0    0 -2.1585998785e+01 -1.9231149597e+01 -2.1574600023e+01 3.6116665870e+01 1.7770000000e+00 0.0000e+00 -1.0000e+00
       22  1    3    3    0    0 -7.5174732779e+00 +2.4963358187e+01 +3.8122332535e+01 4.6184346854e+01 0.0000000000e+00 0.0000e+00 -1.0000e+00
<mgrwt>
<rscale>  2 0.12500000E+03</rscale>
<asrwt>0</asrwt>
<pdfrwt beam="1">  1       21 0.15626722E-01 0.12500000E+03</pdfrwt>
<pdfrwt beam="2">  1       21 0.54059785E-02 0.12500000E+03</pdfrwt>
<totfact> 0.85816298E+06</totfact>
</mgrwt>
</event>
<event>
 6      0 +1.3698540e+00 1.25000000e+02 7.54677100e-03 1.12640300e-01
       21 -1    0    0  502  501 +0.0000000000e+00 +0.0000000000e+00 +8.7711484178e+00 8.7711484178e+00 0.0000000000e+00 0.0000e+00 1.0000e+00
       21 -1    0    0  501  502 -0.0000000000e+00 -0.0000000000e+00 -4.4535217214e+02 4.4535217214e+02 0.0000000000e+00 0.0000e+00 1.0000e+00
       25  2    1    2    0    0 +0.0000000000e+00 +0.0000000000e+00 -4.3658102372e+02 4.5412332055e+02 1.2500000000e+02 0.0000e+00 0.0000e+00
      -15  1    3    3    0    0 +8.2582182654e+00 -1.1100480824e+01 -4.3962390316e+02 4.3984514639e+02 1.7770000000e+00 0.0000e+00 1.0000e+00
       15  1    3    3    0    0 -8.2402343782e+00 +1.1081611659e+01 +3.0308641929e+00 1.4249471789e+01 1.7770000000e+00 0.0000e+00 1.0000e+00
       22  1    3    3    0    0 -1.7983887183e-02 +1.8869164953e-02 +1.2015180368e-02 2.8702441395e-02 0.0000000000e+00 0.0000e+00 -1.0000e+00
<mgrwt>
<rscale>  2 0.12500000E+03</rscale>
<asrwt>0</asrwt>
<pdfrwt beam="1">  1       21 0.12898751E-02 0.12500000E+03</pdfrwt>
<pdfrwt beam="2">  1       21 0.65492951E-01 0.12500000E+03</pdfrwt>
<totfact> 0.48934028E+06</totfact>
</mgrwt>
</event>
<event>
 6      0 +1.3698540e+00 1.25000000e+02 7.54677100e-03 1.12640300e-01
       21 -1    0    0  502  501 +0.0000000000e+00 +0.0000000000e+00 +1.1983060326e+02 1.1983060326e+02 0.0000000000e+00 0.0000e+00 -1.0000e+00
       21 -1    0    0  501  502 -0.0000000000e+00 -0.0000000000e+00 -3.2598100099e+01 3.2598100099e+01 0.0000000000e+00 0.0000e+00 -1.0000e+00
       25  2    1    2    0    0 +0.0000000000e+00 +0.0000000000e+00 +8.7232503162e+01 1.5242870336e+02 1.2500000000e+02 0.0000e+00 0.0000e+00
      -15  1    3    3    0    0 +3.5177670826e+00 +2.9103131139e+01 -2.3606481592e+01 3.7680109203e+01 1.7770000000e+00 0.0000e+00 1.0000e+00
       15  1    3    3    0    0 -3.5072275300e+00 -2.9133150831e+01 +1.1087179353e+02 1.1470289208e+02 1.7770000000e+00 0.0000e+00 1.0000e+00
       22  1    3    3    0    0 -1.0539552565e-02 +3.0019692250e-02 -3.2808774773e-02 4.5702076463e-02 0.0000000000e+00 0.0000e+00 1.0000e+00
<mgrwt>
<rscale>  2 0.12500000E+03</rscale>
<asrwt>0</asrwt>
<pdfrwt beam="1">  1       21 0.17622147E-01 0.12500000E+03</pdfrwt>
<pdfrwt beam="2">  1       21 0.47938383E-02 0.12500000E+03</pdfrwt>
<totfact> 0.84220197E+06</totfact>
</mgrwt>
</event>
<event>
 6      0 +1.3698540e+00 1.25000000e+02 7.54677100e-03 1.12640300e-01
       21 -1    0    0  502  501 +0.0000000000e+00 +0.0000000000e+00 +7.8650218055e+01 7.8650218055e+01 0.0000000000e+00 0.0000e+00 1.0000e+00
       21 -1    0    0  501  502 -0.0000000000e+00 -0.0000000000e+00 -4.9666105150e+01 4.9666105150e+01 0.0000000000e+00 0.0000e+00 1.0000e+00
       25  2    1    2    0    0 +0.0000000000e+00 +0.0000000000e+00 +2.8984112905e+01 1.2831632321e+02 1.2500000000e+02 0.0000e+00 0.0000e+00
      -15  1    3    3    0    0 +3.6186156783e+01 +2.9732242960e+01 +3.1644785250e+01 5.6550812343e+01 1.7770000000e+00 0.0000e+00 -1.0000e+00
       15  1    3    3    0    0 -1.0607282701e+00 -2.3056694195e+01 +1.9011877838e+01 2.9955725990e+01 1.7770000000e+00 0.0000e+00 -1.0000e+00
       22  1    3    3    0    0 -3.5125428513e+01 -6.6755487650e+00 -2.1672550184e+01 4.1809784871e+01 0.0000000000e+00 0.0000e+00 -1.0000e+00
<mgrwt>
<rscale>  2 0.12500000E+03</rscale>
<asrwt>0</asrwt>
<pdfrwt beam="1">  1       21 0.11566209E-01 0.12500000E+03</pdfrwt>
<pdfrwt beam="2">  1       21 0.73038389E-02 0.12500000E+03</pdfrwt>
<totfact> 0.88401667E+06</totfact>
</mgrwt>
</event>
<event>
 6      0 +1.3698540e+00 1.25000000e+02 7.54677100e-03 1.12640300e-01
       21 -1    0    0  502  501 +0.0000000000e+00 +0.0000000000e+00 +9.2093466811e+01 9.2093466811e+01 0.0000000000e+00 0.0000e+00 -1.0000e+00
       21 -1    0    0  501  502 -0.0000000000e+00 -0.0000000000e+00 -4.2416146718e+01 4.2416146718e+01 0.0000000000e+00 0.0000e+00 -1.0000e+00
       25  2    1    2    0    0 +0.0000000000e+00 +0.0000000000e+00 +4.9677320093e+01 1.3450961353e+02 1.2500000000e+02 0.0000e+00 0.0000e+00
      -15  1    3    3    0    0 +4.8548519871e+01 +2.1584447101e+01 -1.0528844635e+01 5.4192817205e+01 1.7770000000e+00 0.0000e+00 1.0000e+00
       15  1    3    3    0    0 -4.8548519852e+01 -2.1584448153e+01 +6.0206166674e+01 8.0316794112e+01 1.7770000000e+00 0.0000e+00 1.0000e+00
       22  1    3    3    0    0 -1.8367821482e-08 +1.0528600511e-06 -1.9452289405e-06 2.2119600574e-06 0.0000000000e+00 0.0000e+00 1.0000e+00
<mgrwt>
<rscale>  2 0.12500000E+03</rscale>
<asrwt>0</asrwt>
<pdfrwt beam="1">  1       21 0.13543157E-01 0.12500000E+03</pdfrwt>
<pdfrwt beam="2">  1       21 0.62376686E-02 0.12500000E+03</pdfrwt>
<totfact> 0.87291796E+06</totfact>
</mgrwt>
</event>
<event>
 6      0 +1.3698540e+00 1.25000000e+02 7.54677100e-03 1.12640300e-01
       21 -1    0    0  502  501 +0.0000000000e+00 +0.0000000000e+00 +4.4998305861e+01 4.4998305861e+01 0.0000000000e+00 0.0000e+00 1.0000e+00
       21 -1    0    0  501  502 -0.0000000000e+00 -0.0000000000e+00 -8.6808823694e+01 8.6808823694e+01 0.0000000000e+00 0.0000e+00 1.0000e+00
       25  2    1    2    0    0 +0.0000000000e+00 +0.0000000000e+00 -4.1810517834e+01 1.3180712955e+02 1.2500000000e+02 0.0000e+00 0.0000e+00
      -15  1    3    3    0    0 +3.7371566346e+01 -2.2446986489e+01 +2.6278897506e+01 5.0933676058e+01 1.7770000000e+00 0.0000e+00 1.0000e+00
       15  1    3    3    0    0 -3.7373291941e+01 +2.2449573919e+01 -6.8088929303e+01 8.0870305689e+01 1.7770000000e+00 0.0000e+00 1.0000e+00
       22  1    3    3    0    0 +1.7255949853e-03 -2.5874299405e-03 -4.8603977851e-04 3.1478097809e-03 0.0000000000e+00 0.0000e+00 1.0000e+00
<mgrwt>
<rscale>  2 0.12500000E+03</rscale>
<asrwt>0</asrwt>
<pdfrwt beam="1">  1       21 0.66173980E-02 0.12500000E+03</pdfrwt>
<pdfrwt beam="2">  1       21 0.12766003E-01 0.12500000E+03</pdfrwt>
<totfact> 0.87770765E+06</totfact>
</mgrwt>
</event>
<event>
 6      0 +1.3698540e+00 1.25000000e+02 7.54677100e-03 1.12640300e-01
       21 -1    0    0  502  501 +0.0000000000e+00 +0.0000000000e+00 +7.1928898329e+00 7.1928898329e+00 0.0000000000e+00 0.0000e+00 1.0000e+00
       21 -1    0    0  501  502 -0.0000000000e+00 -0.0000000000e+00 -5.4307101746e+02 5.4307101746e+02 0.0000000000e+00 0.0000e+00 1.0000e+00
       25  2    1    2    0    0 +0.0000000000e+00 +0.0000000000e+00 -5.3587812763e+02 5.5026390729e+02 1.2500000000e+02 0.0000e+00 0.0000e+00
      -15  1    3    3    0    0 +2.5660470375e+01 -1.8473493825e+00 -4.9514761644e+01 5.5827786893e+01 1.7770000000e+00 0.0000e+00 -1.0000e+00
       15  1    3    3    0    0 -2.6620648189e+01 +5.1713071040e+00 -4.1790700396e+01 4.9849991933e+01 1.7770000000e+00 0.0000e+00 -1.0000e+00
       22  1    3    3    0    0 +9.6017781433e-01 -3.3239577215e+00 -4.4457266569e+02 4.4458612857e+02 0.0000000000e+00 0.0000e+00 -1.0000e+00
<mgrwt>
<rscale>  2 0.12500000E+03</rscale>
<asrwt>0</asrwt>
<pdfrwt beam="1">  1       21 0.10577775E-02 0.12500000E+03</pdfrwt>
<pdfrwt beam="2">  1       21 0.79863419E-01 0.12500000E+03</pdfrwt>
<totfact> 0.41776933E+06</totfact>
</mgrwt>
</event>
<event>
 6      0 +1.3698540e+00 1.25000000e+02 7.54677100e-03 1.12640300e-01
       21 -1    0    0  502  501 +0.0000000000e+00 +0.0000000000e+00 +4.6053941009e+02 4.6053941009e+02 0.0000000000e+00 0.0000e+00 1.0000e+00
       21 -1    0    0  501  502 -0.0000000000e+00 -0.0000000000e+00 -8.4819016883e+00 8.4819016883e+00 0.0000000000e+00 0.0000e+00 1.0000e+00
       25  2    1    2    0    0 +0.0000000000e+00 +0.0000000000e+00 +4.5205750841e+02 4.6902131178e+02 1.2500000000e+02 0.0000e+00 0.0000e+00
      -15  1    3    3    0    0 +2.7174507013e+01 -2.6002213556e+01 +6.3682737548e+01 7.3981198502e+01 1.7770000000e+00 0.0000e+00 -1.0000e+00
       15  1    3    3    0    0 -1.4221081431e+01 +2.4004034178e+01 +5.7805438431e+01 6.4211052437e+01 1.7770000000e+00 0.0000e+00 -1.0000e+00
       22  1    3    3    0    0 -1.2953425582e+01 +1.9981793779e+00 +3.3056933252e+02 3.3082906093e+02 0.0000000000e+00 0.0000e+00 -1.0000e+00
<mgrwt>
<rscale>  2 0.12500000E+03</rscale>
<asrwt>0</asrwt>
<pdfrwt beam="1">  1       21 0.67726367E-01 0.12500000E+03</pdfrwt>
<pdfrwt beam="2">  1       21 0.12473388E-02 0.12500000E+03</pdfrwt>
<totfact> 0.47722615E+06</totfact>
</mgrwt>
</event>
<event>
 6      0 +1.3698540e+00 1.25000000e+02 7.54677100e-03 1.12640300e-01
       21 -1    0    0  502  501 +0.0000000000e+00 +0.0000000000e+00 +5.2785543343e+01 5.2785543343e+01 0.0000000000e+00 0.0000e+00 -1.0000e+00
       21 -1    0    0  501  502 -0.0000000000e+00 -0.0000000000e+00 -7.4002269420e+01 7.4002269420e+01 0.0000000000e+00 0.0000e+00 -1.0000e+00
       25  2    1    2    0    0 +0.0000000000e+00 +0.0000000000e+00 -2.1216726077e+01 1.2678781276e+02 1.2500000000e+02 0.0000e+00 0.0000e+00
      -15  1    3    3    0    0 -5.8722880250e+01 -1.0463085960e+01 +8.2331057809e+00 6.0239477028e+01 1.7770000000e+00 0.0000e+00 1.0000e+00
       15  1    3    3    0    0 +5.8721665552e+01 +1.0462146575e+01 -2.9442851302e+01 6.6541188282e+01 1.7770000000e+00 0.0000e+00 1.0000e+00
       22  1    3    3    0    0 +1.2146983206e-03 +9.3938490968e-04 -6.9805568874e-03 7.1474548251e-03 0.0000000000e+00 0.0000e+00 1.0000e+00
<mgrwt>
<rscale>  2 0.12500000E+03</rscale>
<asrwt>0</asrwt>
<pdfrwt beam="1">  1       21 0.77625800E-02 0.12500000E+03</pdfrwt>
<pdfrwt beam="2">  1       21 0.10882687E-01 0.12500000E+03</pdfrwt>
<totfact> 0.88670972E+06</totfact>
</mgrwt>
</event>
<event>
 6      0 +1.3698540e+00 1.25000000e+02 7.54677100e-03 1.12640300e-01
       21 -1    0    0  502  501 +0.0000000000e+00 +0.0000000000e+00 +1.4762563583e+02 1.4762563583e+02 0.0000000000e+00 0.0000e+00 -1.0000e+00
       21 -1    0    0  501  502 -0.0000000000e+00 -0.0000000000e+00 -2.6460512620e+01 2.6460512620e+01 0.0000000000e+00 0.0000e+00 -1.0000e+00
       25  2    1    2    0    0 +0.0000000000e+00 +0.0000000000e+00 +1.2116512321e+02 1.7408614845e+02 1.2500000000e+02 0.0000e+00 0.0000e+00
      -15  1    3    3    0    0 -2.7714683416e+01 -2.3979370034e+01 +4.8607401899e+01 6.0901158548e+01 1.7770000000e+00 0.0000e+00 -1.0000e+00
       15  1    3    3    0    0 +2.5474854740e+01 -1.5037924233e+01 -1.2575165654e+00 2.9662206023e+01 1.7770000000e+00 0.0000e+00 -1.0000e+00
       22  1    3    3    0    0 +2.2398286764e+00 +3.9017294266e+01 +7.3815237878e+01 8.3522783882e+01 0.0000000000e+00 0.0000e+00 -1.0000e+00
<mgrwt>
<rscale>  2 0.12500000E+03</rscale>
<asrwt>0</asrwt>
<pdfrwt beam="1">  1       21 0.21709652E-01 0.12500000E+03</pdfrwt>
<pdfrwt beam="2">  1       21 0.38912519E-02 0.12500000E+03</pdfrwt>
<totfact> 0.80720744E+06</totfact>
</mgrwt>
</event>
<event>
 6      0 +1.3698540e+00 1.25000000e+02 7.54677100e-03 1.12640300e-01
       21 -1    0    0  502  501 +0.0000000000e+00 +0.0000000000e+00 +6.9196588816e+00 6.9196588816e+00 0.0000000000e+00 0.0000e+00 1.0000e+00
       21 -1    0    0  501  502 -0.0000000000e+00 -0.0000000000e+00 -5.6451482173e+02 5.6451482173e+02 0.0000000000e+00 0.0000e+00 1.0000e+00
       25  2    1    2    0    0 +0.0000000000e+00 +0.0000000000e+00 -5.5759516285e+02 5.7143448061e+02 1.2500000000e+02 0.0000e+00 0.0000e+00
      -15  1    3    3    0    0 +1.5262148595e+01 +5.2563525099e+01 -1.4110317187e+02 1.5135759046e+02 1.7770000000e+00 0.0000e+00 -1.0000e+00
       15  1    3    3    0    0 -1.5262148069e+01 -5.2563520931e+01 -4.1649195888e+02 4.2007685778e+02 1.7770000000e+00 0.0000e+00 -1.0000e+00
       22  1    3    3    0    0 -5.2610972053e-07 -4.1673468532e-06 -3.2161878677e-05 3.2435012121e-05 0.0000000000e+00 0.0000e+00 1.0000e+00
<mgrwt>
<rscale>  2 0.12500000E+03</rscale>
<asrwt>0</asrwt>
<pdfrwt beam="1">  1       21 0.10175970E-02 0.12500000E+03</pdfrwt>
<pdfrwt beam="2">  1       21 0.83016874E-01 0.12500000E+03</pdfrwt>
<totfact> 0.40370428E+06</totfact>
</mgrwt>
</event>
<event>
 6      0 +1.3698540e+00 1.25000000e+02 7.54677100e-03 1.12640300e-01
       21 -1    0    0  502  501 +0.0000000000e+00 +0.0000000000e+00 +6.8079919538e+01 6.8079919538e+01 0.0000000000e+00 0.0000e+00 -1.0000e+00
       21 -1    0    0  501  502 -0.0000000000e+00 -0.0000000000e+00 -5.7377417990e+01 5.7377417990e+01 0.0000000000e+00 0.0000e+00 -1.0000e+00
       25  2    1    2    0    0 +0.0000000000e+00 +0.0000000000e+00 +1.0702501548e+01 1.2545733753e+02 1.2500000000e+02 0.0000e+00 0.0000e+00
      -15  1    3    3    0    0 -5.0783218706e+00 +9.0575998519e+00 -1.2648895095e+01 1.6461523144e+01 1.7770000000e+00 0.0000e+00 -1.0000e+00
       15  1    3    3    0    0 +4.3451718205e+01 -2.0091806989e+00 -2.2324837535e+01 4.8924888574e+01 1.7770000000e+00 0.0000e+00 -1.0000e+00
       22  1    3    3    0    0 -3.8373396335e+01 -7.0484191530e+00 +4.5676234178e+01 6.0070925809e+01 0.0000000000e+00 0.0000e+00 -1.0000e+00
<mgrwt>
<rscale>  2 0.12500000E+03</rscale>
<asrwt>0</asrwt>
<pdfrwt beam="1">  1       21 0.10011753E-01 0.12500000E+03</pdfrwt>
<pdfrwt beam="2">  1       21 0.84378556E-02 0.12500000E+03</pdfrwt>
<totfact> 0.88911426E+06</totfact>
</mgrwt>
</event>
<event>
 6      0 +1.3698540e+00 1.25000000e+02 7.54677100e-03 1.12640300e-01
       21 -1    0    0  502  501 +0.0000000000e+00 +0.0000000000e+00 +5.4496442600e+01 5.4496442600e+01 0.0000000000e+00 0.0000e+00 1.0000e+00
       21 -1    0    0  501  502 -0.0000000000e+00 -0.0000000000e+00 -7.1678990658e+01 7.1678990658e+01 0.0000000000e+00 0.0000e+00 1.0000e+00
       25  2    1    2    0    0 +0.0000000000e+00 +0.0000000000e+00 -1.7182548058e+01 1.2617543326e+02 1.2500000000e+02 0.0000e+00 0.0000e+00
      -15  1    3    3    0    0 +1.9184229936e+01 -4.2649488801e+00 +3.9144769231e+01 4.3837143547e+01 1.7770000000e+00 0.0000e+00 -1.0000e+00
       15  1    3    3    0    0 -2.5695409001e+01 -5.7402942781e-01 -3.3910671753e-01 2.5765408513e+01 1.7770000000e+00 0.0000e+00 -1.0000e+00
       22  1    3    3    0    0 +6.5111790646e+00 +4.8389783080e+00 -5.5988210571e+01 5.6572881196e+01 0.0000000000e+00 0.0000e+00 -1.0000e+00
<mgrwt>
<rscale>  2 0.12500000E+03</rscale>
<asrwt>0</asrwt>
<pdfrwt beam="1">  1       21 0.80141828E-02 0.12500000E+03</pdfrwt>
<pdfrwt beam="2">  1       21 0.10541028E-01 0.12500000E+03</pdfrwt>
<totfact> 0.88780143E+06</totfact>
</mgrwt>
</event>
<event>
 6      0 +1.3698540e+00 1.25000000e+02 7.54677100e-03 1.12640300e-01
       21 -1    0    0  502  501 +0.0000000000e+00 +0.0000000000e+00 +2.3117667798e+02 2.3117667798e+02 0.0000000000e+00 0.0000e+00 -1.0000e+00
       21 -1    0    0  501  502 -0.0000000000e+00 -0.0000000000e+00 -1.6897249472e+01 1.6897249472e+01 0.0000000000e+00 0.0000e+00 -1.0000e+00
       25  2    1    2    0    0 +0.0000000000e+00 +0.0000000000e+00 +2.1427942851e+02 2.4807392746e+02 1.2500000000e+02 0.0000e+00 0.0000e+00
      -15  1    3    3    0    0 -1.3360758349e+01 +9.2175918641e+00 +1.2680791835e+00 1.6378022385e+01 1.7770000000e+00 0.0000e+00 -1.0000e+00
       15  1    3    3    0    0 +4.5334191071e+01 -2.1155838807e+01 +1.6742872103e+02 1.7475208941e+02 1.7770000000e+00 0.0000e+00 -1.0000e+00
       22  1    3    3    0    0 -3.1973432722e+01 +1.1938246943e+01 +4.5582628273e+01 5.6943815647e+01 0.0000000000e+00 0.0000e+00 -1.0000e+00
<mgrwt>
<rscale>  2 0.12500000E+03</rscale>
<asrwt>0</asrwt>
<pdfrwt beam="1">  1       21 0.33996568E-01 0.12500000E+03</pdfrwt>
<pdfrwt beam="2">  1       21 0.24848898E-02 0.12500000E+03</pdfrwt>
<totfact> 0.70251404E+06</totfact>
</mgrwt>
</event>
<event>
 6      0 +1.3698540e+00 1.25000000e+02 7.54677100e-03 1.12640300e-01
       21 -1    0    0  502  501 +0.0000000000e+00 +0.0000000000e+00 +3.4058807916e+02 3.4058807916e+02 0.0000000000e+00 0.0000e+00 -1.0000e+00
       21 -1    0    0  501  502 -0.0000000000e+00 -0.0000000000e+00 -1.1469133064e+01 1.1469133064e+01 0.0000000000e+00 0.0000e+00 -1.0000e+00
       25  2    1    2    0    0 +0.0000000000e+00 +0.0000000000e+00 +3.2911894610e+02 3.5205721223e+02 1.2500000000e+02 0.0000e+00 0.0000e+00
      -15  1    3    3    0    0 -3.1729429975e+01 +1.2811202596e+01 +4.2994173412e+01 5.4977634678e+01 1.7770000000e+00 0.0000e+00 -1.0000e+00
       15  1    3    3    0    0 +3.2442937384e+00 -2.8227725095e+00 -3.5397755053e+00 5.8464712556e+00 1.7770000000e+00 0.0000e+00 -1.0000e+00
       22  1    3    3    0    0 +2.8485136236e+01 -9.9884300865e+00 +2.8966454818e+02 2.9123310628e+02 0.0000000000e+00 0.0000e+00 -1.0000e+00
<mgrwt>
<rscale>  2 0.12500000E+03</rscale>
<asrwt>0</asrwt>
<pdfrwt beam="1">  1       21 0.50086476E-01 0.12500000E+03</pdfrwt>
<pdfrwt beam="2">  1       21 0.16866374E-02 0.12500000E+03</pdfrwt>
<totfact> 0.58318646E+06</totfact>
</mgrwt>
</event>
<event>
 6      0 +1.3698540e+00 1.25000000e+02 7.54677100e-03 1.12640300e-01
       21 -1    0    0  502  501 +0.0000000000e+00 +0.0000000000e+00 +4.4038851971e+01 4.4038851971e+01 0.0000000000e+00 0.0000e+00 1.0000e+00
       21 -1    0    0  501  502 -0.0000000000e+00 -0.0000000000e+00 -8.8700086972e+01 8.8700086972e+01 0.0000000000e+00 0.0000e+00 1.0000e+00
       25  2    1    2    0    0 +0.0000000000e+00 +0.0000000000e+00 -4.4661235001e+01 1.3273893894e+02 1.2500000000e+02 0.0000e+00 0.0000e+00
      -15  1    3    3    0    0 -1.9010169698e+01 -1.5750302767e+01 -2.6323496271e+01 3.6132295446e+01 1.7770000000e+00 0.0000e+00 -1.0000e+00
       15  1    3    3    0    0 -3.2028391951e+01 -8.0599214034e+00 -2.2705424338e+01 4.0118253294e+01 1.7770000000e+00 0.0000e+00 -1.0000e+00
       22  1    3    3    0    0 +5.1038561650e+01 +2.3810224170e+01 +4.3676856067e+00 5.6488390204e+01 0.0000000000e+00 0.0000e+00 -1.0000e+00
<mgrwt>
<rscale>  2 0.12500000E+03</rscale>
<asrwt>0</asrwt>
<pdfrwt beam="1">  1       21 0.64763018E-02 0.12500000E+03</pdfrwt>
<pdfrwt beam="2">  1       21 0.13044130E-01 0.12500000E+03</pdfrwt>
<totfact> 0.87604422E+06</totfact>
</mgrwt>
</event>
<event>
 6      0 +1.3698540e+00 1.25000000e+02 7.54677100e-03 1.12640300e-01
       21 -1    0    0  502  501 +0.0000000000e+00 +0.0000000000e+00 +3.4333745614e+01 3.4333745614e+01 0.0000000000e+00 0.0000e+00 1.0000e+00
       21 -1    0    0  501  502 -0.0000000000e+00 -0.0000000000e+00 -1.1377290564e+02 1.1377290564e+02 0.0000000000e+00 0.0000e+00 1.0000e+00
       25  2    1    2    0    0 +0.0000000000e+00 +0.0000000000e+00 -7.9439160028e+01 1.4810665125e+02 1.2500000000e+02 0.0000e+00 0.0000e+00
      -15  1    3    3    0    0 +2.2577274888e+01 +1.9486751766e+01 -3.6192345173e+01 4.6930911071e+01 1.7770000000e+00 0.0000e+00 -1.0000e+00
       15  1    3    3    0    0 +2.4196098333e+01 +1.0108490382e+01 -3.7126854924e+01 4.5488392343e+01 1.7770000000e+00 0.0000e+00 -1.0000e+00
       22  1    3    3    0    0 -4.6773373221e+01 -2.9595242148e+01 -6.1199599344e+00 5.5687347844e+01 0.0000000000e+00 0.0000e+00 -1.0000e+00
<mgrwt>
<rscale>  2 0.12500000E+03</rscale>
<asrwt>0</asrwt>
<pdfrwt beam="1">  1       21 0.50490803E-02 0.12500000E+03</pdfrwt>
<pdfrwt beam="2">  1       21 0.16731309E-01 0.12500000E+03</pdfrwt>
<totfact> 0.84944384E+06</totfact>
</mgrwt>
</event>
<event>
 6      0 +1.3698540e+00 1.25000000e+02 7.54677100e-03 1.12640300e-01
       21 -1    0    0  502  501 +0.0000000000e+00 +0.0000000000e+00 +3.5748760372e+01 3.5748760372e+01 0.0000000000e+00 0.0000e+00 -1.0000e+00
       21 -1    0    0  501  502 -0.0000000000e+00 -0.0000000000e+00 -1.0926952318e+02 1.0926952318e+02 0.0000000000e+00 0.0000e+00 -1.0000e+00
       25  2    1    2    0    0 +0.0000000000e+00 +0.0000000000e+00 -7.3520762806e+01 1.4501828355e+02 1.2500000000e+02 0.0000e+00 0.0000e+00
      -15  1    3    3    0    0 -2.7197098424e+01 +1.4315657349e+01 -1.1927116925e+00 3.0809097653e+01 1.7770000000e+00 0.0000e+00 -1.0000e+00
       15  1    3    3    0    0 -1.1181345100e+01 -5.7308662720e+00 -7.3772395901e+01 7.4855790907e+01 1.7770000000e+00 0.0000e+00 -1.0000e+00
       22  1    3    3    0    0 +3.8378443524e+01 -8.5847910772e+00 +1.4443447893e+00 3.9353394987e+01 0.0000000000e+00 0.0000e+00 -1.0000e+00
<mgrwt>
<rscale>  2 0.12500000E+03</rscale>
<asrwt>0</asrwt>
<pdfrwt beam="1">  1       21 0.52571706E-02 0.12500000E+03</pdfrwt>
<pdfrwt beam="2">  1       21 0.16069048E-01 0.12500000E+03</pdfrwt>
<totfact> 0.85471113E+06</totfact>
</mgrwt>
</event>
<event>
 6      0 +1.3698540e+00 1.25000000e+02 7.54677100e-03 1.12640300e-01
       21 -1    0    0  502  501 +0.0000000000e+00 +0.0000000000e+00 +2.0435591875e+01 2.0435591875e+01 0.0000000000e+00 0.0000e+00 1.0000e+00
       21 -1    0    0  501  502 -0.0000000000e+00 -0.0000000000e+00 -1.9114934492e+02 1.9114934492e+02 0.0000000000e+00 0.0000e+00 1.0000e+00
       25  2    1    2    0    0 +0.0000000000e+00 +0.0000000000e+00 -1.7071375304e+02 2.1158493679e+02 1.2500000000e+02 0.0000e+00 0.0000e+00
      -15  1    3    3    0    0 -3.3469419986e+01 +3.7034069368e+01 -1.4894775890e+02 1.5709970395e+02 1.7770000000e+00 0.0000e+00 -1.0000e+00
       15  1    3    3    0    0 +3.3469419840e+01 -3.7034069161e+01 -2.1765993992e+01 5.4485232554e+01 1.7770000000e+00 0.0000e+00 -1.0000e+00
       22  1    3    3    0    0 +1.4624251784e-07 -2.0757024995e-07 -1.4531798654e-07 2.9255700282e-07 0.0000000000e+00 0.0000e+00 -1.0000e+00
<mgrwt>
<rscale>  2 0.12500000E+03</rscale>
<asrwt>0</asrwt>
<pdfrwt beam="1">  1       21 0.30052343E-02 0.12500000E+03</pdfrwt>
<pdfrwt beam="2">  1       21 0.28110196E-01 0.12500000E+03</pdfrwt>
<totfact> 0.75161151E+06</totfact>
</mgrwt>
</event>
<event>
 6      0 +1.3698540e+00 1.25000000e+02 7.54677100e-03 1.12640300e-01
       21 -1    0    0  502  501 +0.0000000000e+00 +0.0000000000e+00 +1.8180820177e+01 1.8180820177e+01 0.0000000000e+00 0.0000e+00 -1.0000e+00
       21 -1    0    0  501  502 -0.0000000000e+00 -0.0000000000e+00 -2.1485554348e+02 2.1485554348e+02 0.0000000000e+00 0.0000e+00 -1.0000e+00
       25  2    1    2    0    0 +0.0000000000e+00 +0.0000000000e+00 -1.9667472330e+02 2.3303636366e+02 1.2500000000e+02 0.0000e+00 0.0000e+00
      -15  1    3    3    0    0 +1.2049933764e+01 -3.6720815884e+00 +6.2029684686e+00 1.4153431870e+01 1.7770000000e+00 0.0000e+00 -1.0000e+00
       15  1    3    3    0    0 +1.5108980671e+01 -3.9171989323e+00 -1.7710696770e+00 1.5808863375e+01 1.7770000000e+00 0.0000e+00 -1.0000e+00
       22  1    3    3    0    0 -2.7158914435e+01 +7.5892805206e+00 -2.0110662207e+02 2.0307406839e+02 0.0000000000e+00 0.0000e+00 -1.0000e+00
<mgrwt>
<rscale>  2 0.12500000E+03</rscale>
<asrwt>0</asrwt>
<pdfrwt beam="1">  1       21 0.26736499E-02 0.12500000E+03</pdfrwt>
<pdfrwt beam="2">  1       21 0.31596405E-01 0.12500000E+03</pdfrwt>
<totfact> 0.72231032E+06</totfact>
</mgrwt>
</event>
<event>
 6      0 +1.3698540e+00 1.25000000e+02 7.54677100e-03 1.12640300e-01
       21 -1    0    0  502  501 +0.0000000000e+00 +0.0000000000e+00 +2.9541919866e+02 2.9541919866e+02 0.0000000000e+00 0.0000e+00 -1.0000e+00
       21 -1    0    0  501  502 -0.0000000000e+00 -0.0000000000e+00 -1.3222735752e+01 1.3222735752e+01 0.0000000000e+00 0.0000e+00 -1.0000e+00
       25  2    1    2    0    0 +0.0000000000e+00 +0.0000000000e+00 +2.8219646291e+02 3.0864193442e+02 1.2500000000e+02 0.0000e+00 0.0000e+00
      -15  1    3    3    0    0 +4.7603896300e+01 -3.0192364254e+01 +1.1541429838e+02 1.2845749414e+02 1.7770000000e+00 0.0000e+00 -1.0000e+00
       15  1    3    3    0    0 -1.5087422122e+01 -7.9201246219e+00 +3.0452180092e+01 3.4940688054e+01 1.7770000000e+00 0.0000e+00 -1.0000e+00
       22  1    3    3    0    0 -3.2516474178e+01 +3.8112488875e+01 +1.3632998441e+02 1.4524375219e+02 0.0000000000e+00 0.0000e+00 -1.0000e+00
<mgrwt>
<rscale>  2 0.12500000E+03</rscale>
<asrwt>0</asrwt>
<pdfrwt beam="1">  1       21 0.43443996E-01 0.12500000E+03</pdfrwt>
<pdfrwt beam="2">  1       21 0.19445201E-02 0.12500000E+03</pdfrwt>
<totfact> 0.62967376E+06</totfact>
</mgrwt>
</event>
<event>
 6      0 +1.3698540e+00 1.25000000e+02 7.54677100e-03 1.12640300e-01
       21 -1    0    0  502  501 +0.0000000000e+00 +0.0000000000e+00 +2.5171990824e+02 2.5171990824e+02 0.0000000000e+00 0.0000e+00 -1.0000e+00
       21 -1    0    0  501  502 -0.0000000000e+00 -0.0000000000e+00 -1.5518240203e+01 1.5518240203e+01 0.0000000000e+00 0.0000e+00 -1.0000e+00
       25  2    1    2    0    0 +0.0000000000e+00 +0.0000000000e+00 +2.3620166804e+02 2.6723814844e+02 1.2500000000e+02 0.0000e+00 0.0000e+00
      -15  1    3    3    0    0 +5.2969827293e+01 +2.9582667541e+01 +8.6298366639e+01 1.0550593650e+02 1.7770000000e+00 0.0000e+00 -1.0000e+00
       15  1    3    3    0    0 -4.3326365063e+01 -2.3871017706e+01 +1.2322845100e+02 1.3279837447e+02 1.7770000000e+00 0.0000e+00 -1.0000e+00
       22  1    3    3    0    0 -9.6434622299e+00 -5.7116498351e+00 +2.6674850425e+01 2.8933837506e+01 0.0000000000e+00 0.0000e+00 -1.0000e+00
<mgrwt>
<rscale>  2 0.12500000E+03</rscale>
<asrwt>0</asrwt>
<pdfrwt beam="1">  1       21 0.37017631E-01 0.12500000E+03</pdfrwt>
<pdfrwt beam="2">  1       21 0.22820943E-02 0.12500000E+03</pdfrwt>
<totfact> 0.67836733E+06</totfact>
</mgrwt>
</event>
<event>
 6      0 +1.3698540e+00 1.25000000e+02 7.54677100e-03 1.12640300e-01
       21 -1    0    0  502  501 +0.0000000000e+00 +0.0000000000e+00 +5.0661802018e+02 5.0661802018e+02 0.0000000000e+00 0.0000e+00 1.0000e+00
       21 -1    0    0  501  502 -0.0000000000e+00 -0.0000000000e+00 -7.7104442487e+00 7.7104442487e+00 0.0000000000e+00 0.0000e+00 1.0000e+00
       25  2    1    2    0    0 +0.0000000000e+00 +0.0000000000e+00 +4.9890757593e+02 5.1432846443e+02 1.2500000000e+02 0.0000e+00 0.0000e+00
      -15  1    3    3    0    0 +3.0147549679e+01 -1.7532286883e+01 +8.6489530729e+01 9.3272999790e+01 1.7770000000e+00 0.0000e+00 -1.0000e+00
       15  1    3    3    0    0 +2.3335906018e+01 +4.2913686871e+00 +2.0748484685e+02 2.0884467855e+02 1.7770000000e+00 0.0000e+00 -1.0000e+00
       22  1    3    3    0    0 -5.3483455698e+01 +1.3240918196e+01 +2.0493319831e+02 2.1221078606e+02 0.0000000000e+00 0.0000e+00 -1.0000e+00
<mgrwt>
<rscale>  2 0.12500000E+03</rscale>
<asrwt>0</asrwt>
<pdfrwt beam="1">  1       21 0.74502628E-01 0.12500000E+03</pdfrwt>
<pdfrwt beam="2">  1       21 0.11338892E-02 0.12500000E+03</pdfrwt>
<totfact> 0.44277294E+06</totfact>
</mgrwt>
</event>
<event>
 6      0 +1.3698540e+00 1.25000000e+02 7.54677100e-03 1.12640300e-01
       21 -1    0    0  502  501 +0.0000000000e+00 +0.0000000000e+00 +8.0021069612e+01 8.0021069612e+01 0.0000000000e+00 0.0000e+00 -1.0000e+00
       21 -1    0    0  501  502 -0.0000000000e+00 -0.0000000000e+00 -4.8815268515e+01 4.8815268515e+01 0.0000000000e+00 0.0000e+00 -1.0000e+00
       25  2    1    2    0    0 +0.0000000000e+00 +0.0000000000e+00 +3.1205801097e+01 1.2883633813e+02 1.2500000000e+02 0.0000e+00 0.0000e+00
      -15  1    3    3    0    0 +2.2016502321e+01 -1.5317878574e+01 -5.9957825190e-01 2.6886446428e+01 1.7770000000e+00 0.0000e+00 -1.0000e+00
       15  1    3    3    0    0 +2.2923747159e+01 -1.3575288308e+01 -1.5255484470e+01 3.0751815748e+01 1.7770000000e+00 0.0000e+00 -1.0000e+00
       22  1    3    3    0    0 -4.4940249480e+01 +2.8893166882e+01 +4.7060863817e+01 7.1198075951e+01 0.0000000000e+00 0.0000e+00 -1.0000e+00
<mgrwt>
<rscale>  2 0.12500000E+03</rscale>
<asrwt>0</asrwt>
<pdfrwt beam="1">  1       21 0.11767804E-01 0.12500000E+03</pdfrwt>
<pdfrwt beam="2">  1       21 0.71787159E-02 0.12500000E+03</pdfrwt>
<totfact> 0.88308751E+06</totfact>
</mgrwt>
</event>
<event>
 6      0 +1.3698540e+00 1.25000000e+02 7.54677100e-03 1.12640300e-01
       21 -1    0    0  502  501 +0.0000000000e+00 +0.0000000000e+00 +3.7339234876e+01 3.7339234876e+01 0.0000000000e+00 0.0000e+00 1.0000e+00
       21 -1    0    0  501  502 -0.0000000000e+00 -0.0000000000e+00 -1.0461515917e+02 1.0461515917e+02 0.0000000000e+00 0.0000e+00 1.0000e+00
       25  2    1    2    0    0 +0.0000000000e+00 +0.0000000000e+00 -6.7275924299e+01 1.4195439405e+02 1.2500000000e+02 0.0000e+00 0.0000e+00
      -15  1    3    3    0    0 +8.7355956687e+00 -5.2864262295e-01 +2.3745138862e+01 2.5368867599e+01 1.7770000000e+00 0.0000e+00 -1.0000e+00
       15  1    3    3    0    0 -1.3557529320e+01 -3.0126124502e+00 -1.0260075035e+02 1.0355169789e+02 1.7770000000e+00 0.0000e+00 -1.0000e+00
       22  1    3    3    0    0 +4.8219336509e+00 +3.5412550732e+00 +1.1579687187e+01 1.3033828562e+01 0.0000000000e+00 0.0000e+00 1.0000e+00
<mgrwt>
<rscale>  2 0.12500000E+03</rscale>
<asrwt>0</asrwt>
<pdfrwt beam="1">  1       21 0.54910640E-02 0.12500000E+03</pdfrwt>
<pdfrwt beam="2">  1       21 0.15384582E-01 0.12500000E+03</pdfrwt>
<totfact> 0.86001771E+06</totfact>
</mgrwt>
</event>
<event>
 6      0 +1.3698540e+00 1.25000000e+02 7.54677100e-03 1.12640300e-01
       21 -1    0    0  502  501 +0.0000000000e+00 +0.0000000000e+00 +5.3777877486e+00 5.3777877486e+00 0.0000000000e+00 0.0000e+00 -1.0000e+00
       21 -1    0    0  501  502 -0.0000000000e+00 -0.0000000000e+00 -7.2636745490e+02 7.2636745490e+02 0.0000000000e+00 0.0000e+00 -1.0000e+00
       25  2    1    2    0    0 +0.0000000000e+00 +0.0000000000e+00 -7.2098966716e+02 7.3174524265e+02 1.2500000000e+02 0.0000e+00 0.0000e+00
      -15  1    3    3    0    0 -6.0550444486e+01 -9.1554566357e+00 -4.3288388136e+02 4.3719765688e+02 1.7770000000e+00 0.0000e+00 -1.0000e+00
       15  1    3    3    0    0 +6.0550395901e+01 +9.1554463973e+00 -2.8810557099e+02 2.9454736530e+02 1.7770000000e+00 0.0000e+00 -1.0000e+00
       22  1    3    3    0    0 +4.8585292923e-05 +1.0238456061e-05 -2.1505450811e-04 2.2071202534e-04 0.0000000000e+00 0.0000e+00 -1.0000e+00
<mgrwt>
<rscale>  2 0.12500000E+03</rscale>
<asrwt>0</asrwt>
<pdfrwt beam="1">  1       21 0.79085180E-03 0.12500000E+03</pdfrwt>
<pdfrwt beam="2">  1       21 0.10681865E+00 0.12500000E+03</pdfrwt>
<totfact> 0.31350960E+06</totfact>
</mgrwt>
</event>
<event>
 6      0 +1.3698540e+00 1.25000000e+02 7.54677100e-03 1.12640300e-01
       21 -1    0    0  502  501 +0.0000000000e+00 +0.0000000000e+00 +1.5164231461e+01 1.5164231461e+01 0.0000000000e+00 0.0000e+00 -1.0000e+00
       21 -1    0    0  501  502 -0.0000000000e+00 -0.0000000000e+00 -2.5759630549e+02 2.5759630549e+02 0.0000000000e+00 0.0000e+00 -1.0000e+00
       25  2    1    2    0    0 +0.0000000000e+00 +0.0000000000e+00 -2.4243207403e+02 2.7276053696e+02 1.2500000000e+02 0.0000e+00 0.0000e+00
      -15  1    3    3    0    0 -1.9058870073e+01 +2.7944402617e+01 -4.1756980505e+01 5.3767400123e+01 1.7770000000e+00 0.0000e+00 -1.0000e+00
       15  1    3    3    0    0 +4.7496070539e+01 -7.5652269524e+00 -1.4907193305e+02 1.5664835884e+02 1.7770000000e+00 0.0000e+00 -1.0000e+00
       22  1    3    3    0    0 -2.8437200466e+01 -2.0379175664e+01 -5.1603160439e+01 6.2344777957e+01 0.0000000000e+00 0.0000e+00 -1.0000e+00
<mgrwt>
<rscale>  2 0.12500000E+03</rscale>
<asrwt>0</asrwt>
<pdfrwt beam="1">  1       21 0.22300339E-02 0.12500000E+03</pdfrwt>
<pdfrwt beam="2">  1       21 0.37881812E-01 0.12500000E+03</pdfrwt>
<totfact> 0.67162318E+06</totfact>
</mgrwt>
</event>
<event>
 6      0 +1.3698540e+00 1.25000000e+02 7.54677100e-03 1.12640300e-01
       21 -1    0    0  502  501 +0.0000000000e+00 +0.0000000000e+00 +2.9347597390e+02 2.9347597390e+02 0.0000000000e+00 0.0000e+00 1.0000e+00
       21 -1    0    0  501  502 -0.0000000000e+00 -0.0000000000e+00 -1.3310288908e+01 1.3310288908e+01 0.0000000000e+00 0.0000e+00 1.0000e+00
       25  2    1    2    0    0 +0.0000000000e+00 +0.0000000000e+00 +2.8016568499e+02 3.0678626281e+02 1.2500000000e+02 0.0000e+00 0.0000e+00
      -15  1    3    3    0    0 -1.7693630551e+01 +3.8336770339e+00 +1.9367949043e+02 1.9453191096e+02 1.7770000000e+00 0.0000e+00 -1.0000e+00
       15  1    3    3    0    0 -1.8283695247e+01 -1.9810876619e+01 +1.5670609776e+01 3.1232836632e+01 1.7770000000e+00 0.0000e+00 -1.0000e+00
       22  1    3    3    0    0 +3.5977325799e+01 +1.5977199585e+01 +7.0815584761e+01 8.1021515187e+01 0.0000000000e+00 0.0000e+00 -1.0000e+00
<mgrwt>
<rscale>  2 0.12500000E+03</rscale>
<asrwt>0</asrwt>
<pdfrwt beam="1">  1       21 0.43158227E-01 0.12500000E+03</pdfrwt>
<pdfrwt beam="2">  1       21 0.19573956E-02 0.12500000E+03</pdfrwt>
<totfact> 0.63176673E+06</totfact>
</mgrwt>
</event>
<event>
 6      0 +1.3698540e+00 1.25000000e+02 7.54677100e-03 1.12640300e-01
       21 -1    0    0  502  501 +0.0000000000e+00 +0.0000000000e+00 +1.2616107941e+02 1.2616107941e+02 0.0000000000e+00 0.0000e+00 -1.0000e+00
       21 -1    0    0  501  502 -0.0000000000e+00 -0.0000000000e+00 -3.0962401545e+01 3.0962401545e+01 0.0000000000e+00 0.0000e+00 -1.0000e+00
       25  2    1    2    0    0 +0.0000000000e+00 +0.0000000000e+00 +9.5198677863e+01 1.5712348095e+02 1.2500000000e+02 0.0000e+00 0.0000e+00
      -15  1    3    3    0    0 +1.1958614978e+01 -1.9255914813e+01 +9.7587556841e+01 1.0020123605e+02 1.7770000000e+00 0.0000e+00 -1.0000e+00
       15  1    3    3    0    0 +1.8751135920e+01 +1.2696958350e+00 -8.6858221643e+00 2.0780242094e+01 1.7770000000e+00 0.0000e+00 -1.0000e+00
       22  1    3    3    0    0 -3.0709750898e+01 +1.7986218978e+01 +6.2969431893e+00 3.6142002807e+01 0.0000000000e+00 0.0000e+00 -1.0000e+00
<mgrwt>
<rscale>  2 0.12500000E+03</rscale>
<asrwt>0</asrwt>
<pdfrwt beam="1">  1       21 0.18553100E-01 0.12500000E+03</pdfrwt>
<pdfrwt beam="2">  1       21 0.45532944E-02 0.12500000E+03</pdfrwt>
<totfact> 0.83447562E+06</totfact>
</mgrwt>
</event>
<event>
 6      0 +1.3698540e+00 1.25000000e+02 7.54677100e-03 1.12640300e-01
       21 -1    0    0  502  501 +0.0000000000e+00 +0.0000000000e+00 +3.5431843953e+01 3.5431843953e+01 0.0000000000e+00 0.0000e+00 1.0000e+00
       21 -1    0    0  501  502 -0.0000000000e+00 -0.0000000000e+00 -1.1024687299e+02 1.1024687299e+02 0.0000000000e+00 0.0000e+00 1.0000e+00
       25  2    1    2    0    0 +0.0000000000e+00 +0.0000000000e+00 -7.4815029035e+01 1.4567871694e+02 1.2500000000e+02 0.0000e+00 0.0000e+00
      -15  1    3    3    0    0 +4.5805383880e+01 +2.4142268876e+01 -7.8131698573e+01 9.3748079392e+01 1.7770000000e+00 0.0000e+00 1.0000e+00
       15  1    3    3    0    0 -4.5810094735e+01 -2.4145010159e+01 +3.3249745463e+00 5.1920703770e+01 1.7770000000e+00 0.0000e+00 1.0000e+00
       22  1    3    3    0    0 +4.7108546931e-03 +2.7412827393e-03 -8.3050091142e-03 9.9337787062e-03 0.0000000000e+00 0.0000e+00 1.0000e+00
<mgrwt>
<rscale>  2 0.12500000E+03</rscale>
<asrwt>0</asrwt>
<pdfrwt beam="1">  1       21 0.52105653E-02 0.12500000E+03</pdfrwt>
<pdfrwt beam="2">  1       21 0.16212775E-01 0.12500000E+03</pdfrwt>
<totfact> 0.85357751E+06</totfact>
</mgrwt>
</event>
<event>
 6      0 +1.3698540e+00 1.25000000e+02 7.54677100e-03 1.12640300e-01
       21 -1    0    0  502  501 +0.0000000000e+00 +0.0000000000e+00 +2.7313628364e+01 2.7313628364e+01 0.0000000000e+00 0.0000e+00 -1.0000e+00
       21 -1    0    0  501  502 -0.0000000000e+00 -0.0000000000e+00 -1.4301468659e+02 1.4301468659e+02 0.0000000000e+00 0.0000e+00 -1.0000e+00
       25  2    1    2    0    0 +0.0000000000e+00 +0.0000000000e+00 -1.1570105822e+02 1.7032831495e+02 1.2500000000e+02 0.0000e+00 0.0000e+00
      -15  1    3    3    0    0 -1.8484116843e+01 +5.2323037288e+01 -8.2068563861e+01 9.9084659306e+01 1.7770000000e+00 0.0000e+00 -1.0000e+00
       15  1    3    3    0    0 +2.3314289414e+01 -5.1696824901e+01 -3.4341011337e+01 6.6321795696e+01 1.7770000000e+00 0.0000e+00 -1.0000e+00
       22  1    3    3    0    0 -4.8301725710e+00 -6.2621238661e-01 +7.0851697956e-01 4.9218599462e+00 0.0000000000e+00 0.0000e+00 1.0000e+00
<mgrwt>
<rscale>  2 0.12500000E+03</rscale>
<asrwt>0</asrwt>
<pdfrwt beam="1">  1       21 0.40167101E-02 0.12500000E+03</pdfrwt>
<pdfrwt beam="2">  1       21 0.21031571E-01 0.12500000E+03</pdfrwt>
<totfact> 0.81312121E+06</totfact>
</mgrwt>
</event>
<event>
 6      0 +1.3698540e+00 1.25000000e+02 7.54677100e-03 1.12640300e-01
       21 -1    0    0  502  501 +0.0000000000e+00 +0.0000000000e+00 +1.4201214417e+02 1.4201214417e+02 0.0000000000e+00 0.0000e+00 1.0000e+00
       21 -1    0    0  501  502 -0.0000000000e+00 -0.0000000000e+00 -2.7506450400e+01 2.7506450400e+01 0.0000000000e+00 0.0000e+00 1.0000e+00
       25  2    1    2    0    0 +0.0000000000e+00 +0.0000000000e+00 +1.1450569377e+02 1.6951859458e+02 1.2500000000e+02 0.0000e+00 0.0000e+00
      -15  1    3    3    0    0 -5.8548377507e+01 +1.0691566546e+01 +3.1490703413e+01 6.7357584832e+01 1.7770000000e+00 0.0000e+00 -1.0000e+00
       15  1    3    3    0    0 +5.8548386806e+01 -1.0691574161e+01 +8.3014940434e+01 1.0216095839e+02 1.7770000000e+00 0.0000e+00 -1.0000e+00
       22  1    3    3    0    0 -9.2988244730e-06 +7.6149412269e-06 +4.9913155464e-05 5.1339833997e-05 0.0000000000e+00 0.0000e+00 -1.0000e+00
<mgrwt>
<rscale>  2 0.12500000E+03</rscale>
<asrwt>0</asrwt>
<pdfrwt beam="1">  1       21 0.20884139E-01 0.12500000E+03</pdfrwt>
<pdfrwt beam="2">  1       21 0.40450663E-02 0.12500000E+03</pdfrwt>
<totfact> 0.81440697E+06</totfact>
</mgrwt>
</event>
<event>
 6      0 +1.3698540e+00 1.25000000e+02 7.54677100e-03 1.12640300e-01
       21 -1    0    0  502  501 +0.0000000000e+00 +0.0000000000e+00 +1.2456578116e+02 1.2456578116e+02 0.0000000000e+00 0.0000e+00 -1.0000e+00
       21 -1    0    0  501  502 -0.0000000000e+00 -0.0000000000e+00 -3.1358933115e+01 3.1358933115e+01 0.0000000000e+00 0.0000e+00 -1.0000e+00
       25  2    1    2    0    0 +0.0000000000e+00 +0.0000000000e+00 +9.3206848049e+01 1.5592471428e+02 1.2500000000e+02 0.0000e+00 0.0000e+00
      -15  1    3    3    0    0 -2.7975334242e+01 -5.7236382306e+00 +1.2849126816e+01 3.1362990123e+01 1.7770000000e+00 0.0000e+00 -1.0000e+00
       15  1    3    3    0    0 -1.4437804415e+01 +1.0742530095e+01 +7.9826742549e+01 8.1849365937e+01 1.7770000000e+00 0.0000e+00 -1.0000e+00
       22  1    3    3    0    0 +4.2413138657e+01 -5.0188918647e+00 +5.3097868213e-01 4.2712358219e+01 0.0000000000e+00 0.0000e+00 -1.0000e+00
<mgrwt>
<rscale>  2 0.12500000E+03</rscale>
<asrwt>0</asrwt>
<pdfrwt beam="1">  1       21 0.18318497E-01 0.12500000E+03</pdfrwt>
<pdfrwt beam="2">  1       21 0.46116079E-02 0.12500000E+03</pdfrwt>
<totfact> 0.83643636E+06</totfact>
</mgrwt>
</event>
<event>
 6      0 +1.3698540e+00 1.25000000e+02 7.54677100e-03 1.12640300e-01
       21 -1    0    0  502  501 +0.0000000000e+00 +0.0000000000e+00 +1.9380976306e+02 1.9380976306e+02 0.0000000000e+00 0.0000e+00 -1.0000e+00
       21 -1    0    0  501  502 -0.0000000000e+00 -0.0000000000e+00 -2.0155073399e+01 2.0155073399e+01 0.0000000000e+00 0.0000e+00 -1.0000e+00
       25  2    1    2    0    0 +0.0000000000e+00 +0.0000000000e+00 +1.7365468966e+02 2.1396483646e+02 1.2500000000e+02 0.0000e+00 0.0000e+00
      -15  1    3    3    0    0 -1.2316898278e+01 -1.3414526989e+01 +4.8811256436e+00 1.8937756840e+01 1.7770000000e+00 0.0000e+00 -1.0000e+00
       15  1    3    3    0    0 -2.8103705272e+01 -2.6010830737e+01 +4.5911350614e+01 5.9811298346e+01 1.7770000000e+00 0.0000e+00 -1.0000e+00
       22  1    3    3    0    0 +4.0420603551e+01 +3.9425357726e+01 +1.2286221340e+02 1.3521578127e+02 0.0000000000e+00 0.0000e+00 -1.0000e+00
<mgrwt>
<rscale>  2 0.12500000E+03</rscale>
<asrwt>0</asrwt>
<pdfrwt beam="1">  1       21 0.28501435E-01 0.12500000E+03</pdfrwt>
<pdfrwt beam="2">  1       21 0.29639815E-02 0.12500000E+03</pdfrwt>
<totfact> 0.74828024E+06</totfact>
</mgrwt>
</event>
<event>
 6      0 +1.3698540e+00 1.25000000e+02 7.54677100e-03 1.12640300e-01
       21 -1    0    0  502  501 +0.0000000000e+00 +0.0000000000e+00 +6.3474662059e+01 6.3474662059e+01 0.0000000000e+00 0.0000e+00 -1.0000e+00
       21 -1    0    0  501  502 -0.0000000000e+00 -0.0000000000e+00 -6.1540304009e+01 6.1540304009e+01 0.0000000000e+00 0.0000e+00 -1.0000e+00
       25  2    1    2    0    0 +0.0000000000e+00 +0.0000000000e+00 +1.9343580505e+00 1.2501496607e+02 1.2500000000e+02 0.0000e+00 0.0000e+00
      -15  1    3    3    0    0 +4.2516119795e+01 +1.3922339341e+00 +2.0536377728e+01 4.7270067664e+01 1.7770000000e+00 0.0000e+00 -1.0000e+00
       15  1    3    3    0    0 -1.9235261597e+01 +9.9909969130e+00 -3.9074608954e+01 4.4719102204e+01 1.7770000000e+00 0.0000e+00 -1.0000e+00
       22  1    3    3    0    0 -2.3280858198e+01 -1.1383230847e+01 +2.0472589277e+01 3.3025796200e+01 0.0000000000e+00 0.0000e+00 -1.0000e+00
<mgrwt>
<rscale>  2 0.12500000E+03</rscale>
<asrwt>0</asrwt>
<pdfrwt beam="1">  1       21 0.93345091E-02 0.12500000E+03</pdfrwt>
<pdfrwt beam="2">  1       21 0.90500447E-02 0.12500000E+03</pdfrwt>
<totfact> 0.88999089E+06</totfact>
</mgrwt>
</event>
<event>
 6      0 +1.3698540e+00 1.25000000e+02 7.54677100e-03 1.12640300e-01
       21 -1    0    0  502  501 +0.0000000000e+00 +0.0000000000e+00 +9.2291526921e+00 9.2291526921e+00 0.0000000000e+00 0.0000e+00 -1.0000e+00
       21 -1    0    0  501  502 -0.0000000000e+00 -0.0000000000e+00 -4.2325120521e+02 4.2325120521e+02 0.0000000000e+00 0.0000e+00 -1.0000e+00
       25  2    1    2    0    0 +0.0000000000e+00 +0.0000000000e+00 -4.1402205252e+02 4.3248035790e+02 1.2500000000e+02 0.0000e+00 0.0000e+00
      -15  1    3    3    0    0 -7.1249014535e+00 +3.2319081297e+01 -1.5027962945e+02 1.5389090939e+02 1.7770000000e+00 0.0000e+00 -1.0000e+00
       15  1    3    3    0    0 +4.1559429604e+01 -1.6716914839e+01 -8.7250057314e+01 9.8093688181e+01 1.7770000000e+00 0.0000e+00 -1.0000e+00
       22  1    3    3    0    0 -3.4434528151e+01 -1.5602166458e+01 -1.7649236580e+02 1.8049576037e+02 0.0000000000e+00 0.0000e+00 -1.0000e+00
<mgrwt>
<rscale>  2 0.12500000E+03</rscale>
<asrwt>0</asrwt>
<pdfrwt beam="1">  1       21 0.13572287E-02 0.12500000E+03</pdfrwt>
<pdfrwt beam="2">  1       21 0.62242809E-01 0.12500000E+03</pdfrwt>
<totfact> 0.50758282E+06</totfact>
</mgrwt>
</event>
<event>
 6      0 +1.3698540e+00 1.25000000e+02 7.54677100e-03 1.12640300e-01
       21 -1    0    0  502  501 +0.0000000000e+00 +0.0000000000e+00 +3.4600993607e+01 3.4600993607e+01 0.0000000000e+00 0.0000e+00 1.0000e+00
       21 -1    0    0  501  502 -0.0000000000e+00 -0.0000000000e+00 -1.1289415687e+02 1.1289415687e+02 0.0000000000e+00 0.0000e+00 1.0000e+00
       25  2    1    2    0    0 +0.0000000000e+00 +0.0000000000e+00 -7.8293163260e+01 1.4749515047e+02 1.2500000000e+02 0.0000e+00 0.0000e+00
      -15  1    3    3    0    0 -4.4226690749e+01 +1.7658089656e+00 -7.4342177715e+00 4.4917074468e+01 1.7770000000e+00 0.0000e+00 -1.0000e+00
       15  1    3    3    0    0 -1.4068234866e+01 -4.4559595032e+00 -8.2920169373e+00 1.7020166898e+01 1.7770000000e+00 0.0000e+00 -1.0000e+00
       22  1    3    3    0    0 +5.8294925615e+01 +2.6901505377e+00 -6.2566928555e+01 8.5557909109e+01 0.0000000000e+00 0.0000e+00 -1.0000e+00
<mgrwt>
<rscale>  2 0.12500000E+03</rscale>
<asrwt>0</asrwt>
<pdfrwt beam="1">  1       21 0.50883815E-02 0.12500000E+03</pdfrwt>
<pdfrwt beam="2">  1       21 0.16602082E-01 0.12500000E+03</pdfrwt>
<totfact> 0.85048014E+06</totfact>
</mgrwt>
</event>
<event>
 6      0 +1.3698540e+00 1.25000000e+02 7.54677100e-03 1.12640300e-01
       21 -1    0    0  502  501 +0.0000000000e+00 +0.0000000000e+00 +1.3697753969e+02 1.3697753969e+02 0.0000000000e+00 0.0000e+00 -1.0000e+00
       21 -1    0    0  501  502 -0.0000000000e+00 -0.0000000000e+00 -2.8517448984e+01 2.8517448984e+01 0.0000000000e+00 0.0000e+00 -1.0000e+00
       25  2    1    2    0    0 +0.0000000000e+00 +0.0000000000e+00 +1.0846009070e+02 1.6549498867e+02 1.2500000000e+02 0.0000e+00 0.0000e+00
      -15  1    3    3    0    0 -1.8278729336e+01 +1.7345126857e+01 +1.0885362245e+01 2.7506621240e+01 1.7770000000e+00 0.0000e+00 -1.0000e+00
       15  1    3    3    0    0 -2.2651215898e+00 -3.8545019401e+01 +2.8354655501e+00 3.8756249693e+01 1.7770000000e+00 0.0000e+00 -1.0000e+00
       22  1    3    3    0    0 +2.0543850926e+01 +2.1199892543e+01 +9.4739262904e+01 9.9232117735e+01 0.0000000000e+00 0.0000e+00 -1.0000e+00
<mgrwt>
<rscale>  2 0.12500000E+03</rscale>
<asrwt>0</asrwt>
<pdfrwt beam="1">  1       21 0.20143756E-01 0.12500000E+03</pdfrwt>
<pdfrwt beam="2">  1       21 0.41937426E-02 0.12500000E+03</pdfrwt>
<totfact> 0.82086065E+06</totfact>
</mgrwt>
</event>
<event>
 6      0 +1.3698540e+00 1.25000000e+02 7.54677100e-03 1.12640300e-01
       21 -1    0    0  502  501 +0.0000000000e+00 +0.0000000000e+00 +1.1372135271e+02 1.1372135271e+02 0.0000000000e+00 0.0000e+00 -1.0000e+00
       21 -1    0    0  501  502 -0.0000000000e+00 -0.0000000000e+00 -3.4349310020e+01 3.4349310020e+01 0.0000000000e+00 0.0000e+00 -1.0000e+00
       25  2    1    2    0    0 +0.0000000000e+00 +0.0000000000e+00 +7.9372042686e+01 1.4807066273e+02 1.2500000000e+02 0.0000e+00 0.0000e+00
      -15  1    3    3    0    0 +1.5292685813e+01 +4.7389164283e+01 +4.8228069642e+01 6.9344816398e+01 1.7770000000e+00 0.0000e+00 -1.0000e+00
       15  1    3    3    0    0 -2.1080433321e+01 -2.2721851599e+01 +4.1095817067e+01 5.1504282526e+01 1.7770000000e+00 0.0000e+00 -1.0000e+00
       22  1    3    3    0    0 +5.7877475074e+00 -2.4667312684e+01 -9.9518440266e+00 2.7221563801e+01 0.0000000000e+00 0.0000e+00 -1.0000e+00
<mgrwt>
<rscale>  2 0.12500000E+03</rscale>
<asrwt>0</asrwt>
<pdfrwt beam="1">  1       21 0.16723728E-01 0.12500000E+03</pdfrwt>
<pdfrwt beam="2">  1       21 0.50513692E-02 0.12500000E+03</pdfrwt>
<totfact> 0.84950475E+06</totfact>
</mgrwt>
</event>
<event>
 6      0 +1.3698540e+00 1.25000000e+02 7.54677100e-03 1.12640300e-01
       21 -1    0    0  502  501 +0.0000000000e+00 +0.0000000000e+00 +1.8093304351e+02 1.8093304351e+02 0.0000000000e+00 0.0000e+00 1.0000e+00
       21 -1    0    0  501  502 -0.0000000000e+00 -0.0000000000e+00 -2.1589478209e+01 2.1589478209e+01 0.0000000000e+00 0.0000e+00 1.0000e+00
       25  2    1    2    0    0 +0.0000000000e+00 +0.0000000000e+00 +1.5934356530e+02 2.0252252172e+02 1.2500000000e+02 0.0000e+00 0.0000e+00
      -15  1    3    3    0    0 -2.8758964355e+00 -4.8542668770e+01 +1.1546045212e+02 1.2529539179e+02 1.7770000000e+00 0.0000e+00 -1.0000e+00
       15  1    3    3    0    0 +8.0663220576e+00 +4.5956689187e+01 +1.6946174014e+01 4.9673064887e+01 1.7770000000e+00 0.0000e+00 -1.0000e+00
       22  1    3    3    0    0 -5.1904256221e+00 +2.5859795828e+00 +2.6936939161e+01 2.7554065034e+01 0.0000000000e+00 0.0000e+00 1.0000e+00
<mgrwt>
<rscale>  2 0.12500000E+03</rscale>
<asrwt>0</asrwt>
<pdfrwt beam="1">  1       21 0.26607800E-01 0.12500000E+03</pdfrwt>
<pdfrwt beam="2">  1       21 0.31749234E-02 0.12500000E+03</pdfrwt>
<totfact> 0.76452436E+06</totfact>
</mgrwt>
</event>
<event>
 6      0 +1.3698540e+00 1.25000000e+02 7.54677100e-03 1.12640300e-01
       21 -1    0    0  502  501 +0.0000000000e+00 +0.0000000000e+00 +1.6712074455e+01 1.6712074455e+01 0.0000000000e+00 0.0000e+00 -1.0000e+00
       21 -1    0    0  501  502 -0.0000000000e+00 -0.0000000000e+00 -2.3373818794e+02 2.3373818794e+02 0.0000000000e+00 0.0000e+00 -1.0000e+00
       25  2    1    2    0    0 +0.0000000000e+00 +0.0000000000e+00 -2.1702611349e+02 2.5045026240e+02 1.2500000000e+02 0.0000e+00 0.0000e+00
      -15  1    3    3    0    0 +3.8904844150e+01 +1.2809832758e+01 -6.9297768500e+01 8.0517185506e+01 1.7770000000e+00 0.0000e+00 -1.0000e+00
       15  1    3    3    0    0 +1.0723948397e+01 +1.8823711607e+01 -2.1087336017e+01 3.0284792507e+01 1.7770000000e+00 0.0000e+00 -1.0000e+00
       22  1    3    3    0    0 -4.9628792548e+01 -3.1633544365e+01 -1.2664100898e+02 1.3964828439e+02 0.0000000000e+00 0.0000e+00 -1.0000e+00
<mgrwt>
<rscale>  2 0.12500000E+03</rscale>
<asrwt>0</asrwt>
<pdfrwt beam="1">  1       21 0.24576583E-02 0.12500000E+03</pdfrwt>
<pdfrwt beam="2">  1       21 0.34373259E-01 0.12500000E+03</pdfrwt>
<totfact> 0.69945308E+06</totfact>
</mgrwt>
</event>
<event>
 6      0 +1.3698540e+00 1.25000000e+02 7.54677100e-03 1.12640300e-01
       21 -1    0    0  502  501 +0.0000000000e+00 +0.0000000000e+00 +5.5303896232e+02 5.5303896232e+02 0.0000000000e+00 0.0000e+00 1.0000e+00
       21 -1    0    0  501  502 -0.0000000000e+00 -0.0000000000e+00 -7.0632455688e+00 7.0632455688e+00 0.0000000000e+00 0.0000e+00 1.0000e+00
       25  2    1    2    0    0 +0.0000000000e+00 +0.0000000000e+00 +5.4597571676e+02 5.6010220789e+02 1.2500000000e+02 0.0000e+00 0.0000e+00
      -15  1    3    3    0    0 -1.7476493548e+01 -5.3570933836e+01 +3.9387193375e+02 3.9788632888e+02 1.7770000000e+00 0.0000e+00 -1.0000e+00
       15  1    3    3    0    0 +1.7476493675e+01 +5.3570934172e+01 +1.5210378087e+02 1.6221587685e+02 1.7770000000e+00 0.0000e+00 -1.0000e+00
       22  1    3    3    0    0 -1.2718159029e-07 -3.3632416765e-07 +2.2805372841e-06 2.3087094678e-06 0.0000000000e+00 0.0000e+00 -1.0000e+00
<mgrwt>
<rscale>  2 0.12500000E+03</rscale>
<asrwt>0</asrwt>
<pdfrwt beam="1">  1       21 0.81329229E-01 0.12500000E+03</pdfrwt>
<pdfrwt beam="2">  1       21 0.10387130E-02 0.12500000E+03</pdfrwt>
<totfact> 0.41118306E+06</totfact>
</mgrwt>
</event>
<event>
 6      0 +1.3698540e+00 1.25000000e+02 7.54677100e-03 1.12640300e-01
       21 -1    0    0  502  501 +0.0000000000e+00 +0.0000000000e+00 +1.4740443657e+01 1.4740443657e+01 0.0000000000e+00 0.0000e+00 1.0000e+00
       21 -1    0    0  501  502 -0.0000000000e+00 -0.0000000000e+00 -2.6500220012e+02 2.6500220012e+02 0.0000000000e+00 0.0000e+00 1.0000e+00
       25  2    1    2    0    0 +0.0000000000e+00 +0.0000000000e+00 -2.5026175647e+02 2.7974264378e+02 1.2500000000e+02 0.0000e+00 0.0000e+00
      -15  1    3    3    0    0 +6.9090137540e+00 +2.6634676762e+01 -5.0183134529e+01 5.7259455092e+01 1.7770000000e+00 0.0000e+00 -1.0000e+00
       15  1    3    3    0    0 -2.2332677725e+01 +1.4533865824e+01 -1.6240639212e+02 1.6458728894e+02 1.7770000000e+00 0.0000e+00 -1.0000e+00
       22  1    3    3    0    0 +1.5423663971e+01 -4.1168542586e+01 -3.7672229837e+01 5.7895899767e+01 0.0000000000e+00 0.0000e+00 -1.0000e+00
<mgrwt>
<rscale>  2 0.12500000E+03</rscale>
<asrwt>0</asrwt>
<pdfrwt beam="1">  1       21 0.21677123E-02 0.12500000E+03</pdfrwt>
<pdfrwt beam="2">  1       21 0.38970911E-01 0.12500000E+03</pdfrwt>
<totfact> 0.66322105E+06</totfact>
</mgrwt>
</event>
<event>
 6      0 +1.3698540e+00 1.25000000e+02 7.54677100e-03 1.12640300e-01
       21 -1    0    0  502  501 +0.0000000000e+00 +0.0000000000e+00 +1.9214685502e+01 1.9214685502e+01 0.0000000000e+00 0.0000e+00 1.0000e+00
       21 -1    0    0  501  502 -0.0000000000e+00 -0.0000000000e+00 -2.0329502659e+02 2.0329502659e+02 0.0000000000e+00 0.0000e+00 1.0000e+00
       25  2    1    2    0    0 +0.0000000000e+00 +0.0000000000e+00 -1.8408034108e+02 2.2250971209e+02 1.2500000000e+02 0.0000e+00 0.0000e+00
      -15  1    3    3    0    0 +1.2283000734e+01 -8.7548059463e+00 -6.4211452379e+00 1.6489620048e+01 1.7770000000e+00 0.0000e+00 -1.0000e+00
       15  1    3    3    0    0 -1.9395188677e+01 -4.5379291159e+01 -9.2612424383e+01 1.0495557293e+02 1.7770000000e+00 0.0000e+00 -1.0000e+00
       22  1    3    3    0    0 +7.1121879426e+00 +5.4134097105e+01 -8.5046771444e+01 1.0106451909e+02 0.0000000000e+00 0.0000e+00 -1.0000e+00
<mgrwt>
<rscale>  2 0.12500000E+03</rscale>
<asrwt>0</asrwt>
<pdfrwt beam="1">  1       21 0.28256890E-02 0.12500000E+03</pdfrwt>
<pdfrwt beam="2">  1       21 0.29896328E-01 0.12500000E+03</pdfrwt>
<totfact> 0.73649998E+06</totfact>
</mgrwt>
</event>
<event>
 6      0 +1.3698540e+00 1.25000000e+02 7.54677100e-03 1.12640300e-01
       21 -1    0    0  502  501 +0.0000000000e+00 +0.0000000000e+00 +6.0555781205e+00 6.0555781205e+00 0.0000000000e+00 0.0000e+00 -1.0000e+00
       21 -1    0    0  501  502 -0.0000000000e+00 -0.0000000000e+00 -6.4506640361e+02 6.4506640361e+02 0.0000000000e+00 0.0000e+00 -1.0000e+00
       25  2    1    2    0    0 +0.0000000000e+00 +0.0000000000e+00 -6.3901082549e+02 6.5112198173e+02 1.2500000000e+02 0.0000e+00 0.0000e+00
      -15  1    3    3    0    0 -2.4040829615e+01 -1.9211005649e+01 -6.0271568423e+02 6.0350342001e+02 1.7770000000e+00 0.0000e+00 -1.0000e+00
       15  1    3    3    0    0 +2.4040840860e+01 +1.9211016733e+01 -3.6294824174e+01 4.7618244235e+01 1.7770000000e+00 0.0000e+00 -1.0000e+00
       22  1    3    3    0    0 -1.1245179122e-05 -1.1083910025e-05 -3.1711928010e-04 3.1751211777e-04 0.0000000000e+00 0.0000e+00 1.0000e+00
<mgrwt>
<rscale>  2 0.12500000E+03</rscale>
<asrwt>0</asrwt>
<pdfrwt beam="1">  1       21 0.89052587E-03 0.12500000E+03</pdfrwt>
<pdfrwt beam="2">  1       21 0.94862741E-01 0.12500000E+03</pdfrwt>
<totfact> 0.35492538E+06</totfact>
</mgrwt>
</event>
<event>
 6      0 +1.3698540e+00 1.25000000e+02 7.54677100e-03 1.12640300e-01
       21 -1    0    0  502  501 +0.0000000000e+00 +0.0000000000e+00 +8.9603659998e+01 8.9603659998e+01 0.0000000000e+00 0.0000e+00 -1.0000e+00
       21 -1    0    0  501  502 -0.0000000000e+00 -0.0000000000e+00 -4.3594759412e+01 4.3594759412e+01 0.0000000000e+00 0.0000e+00 -1.0000e+00
       25  2    1    2    0    0 +0.0000000000e+00 +0.0000000000e+00 +4.6008900586e+01 1.3319841941e+02 1.2500000000e+02 0.0000e+00 0.0000e+00
      -15  1    3    3    0    0 -5.8972607217e+00 +3.5212896875e+01 +5.9847284167e+01 6.9710694599e+01 1.7770000000e+00 0.0000e+00 -1.0000e+00
       15  1    3    3    0    0 +2.0158154065e+01 -4.1606385600e+01 -1.1610903567e+01 4.7701292526e+01 1.7770000000e+00 0.0000e+00 -1.0000e+00
       22  1    3    3    0    0 -1.4260893343e+01 +6.3934887249e+00 -2.2274800149e+00 1.5786432284e+01 0.0000000000e+00 0.0000e+00 -1.0000e+00
<mgrwt>
<rscale>  2 0.12500000E+03</rscale>
<asrwt>0</asrwt>
<pdfrwt beam="1">  1       21 0.13177009E-01 0.12500000E+03</pdfrwt>
<pdfrwt beam="2">  1       21 0.64109941E-02 0.12500000E+03</pdfrwt>
<totfact> 0.87522893E+06</totfact>
</mgrwt>
</event>
<event>
 6      0 +1.3698540e+00 1.25000000e+02 7.54677100e-03 1.12640300e-01
       21 -1    0    0  502  501 +0.0000000000e+00 +0.0000000000e+00 +2.2104254403e+02 2.2104254403e+02 0.0000000000e+00 0.0000e+00 -1.0000e+00
       21 -1    0    0  501  502 -0.0000000000e+00 -0.0000000000e+00 -1.7671937396e+01 1.7671937396e+01 0.0000000000e+00 0.0000e+00 -1.0000e+00
       25  2    1    2    0    0 +0.0000000000e+00 +0.0000000000e+00 +2.0337060664e+02 2.3871448143e+02 1.2500000000e+02 0.0000e+00 0.0000e+00
      -15  1    3    3    0    0 -3.3163230175e+01 +1.6299043280e+01 +1.9786973989e+02 2.0129841117e+02 1.7770000000e+00 0.0000e+00 -1.0000e+00
       15  1    3    3    0    0 +3.3163830469e+01 -1.6300939850e+01 +5.4855901682e+00 3.7400664698e+01 1.7770000000e+00 0.0000e+00 -1.0000e+00
       22  1    3    3    0    0 -6.0029359682e-04 +1.8965692649e-03 +1.5276590766e-02 1.5405568890e-02 0.0000000000e+00 0.0000e+00 -1.0000e+00
<mgrwt>
<rscale>  2 0.12500000E+03</rscale>
<asrwt>0</asrwt>
<pdfrwt beam="1">  1       21 0.32506255E-01 0.12500000E+03</pdfrwt>
<pdfrwt beam="2">  1       21 0.25988144E-02 0.12500000E+03</pdfrwt>
<totfact> 0.71476476E+06</totfact>
</mgrwt>
</event>
<event>
 6      0 +1.3698540e+00 1.25000000e+02 7.54677100e-03 1.12640300e-01
       21 -1    0    0  502  501 +0.0000000000e+00 +0.0000000000e+00 +1.2132946674e+01 1.2132946674e+01 0.0000000000e+00 0.0000e+00 1.0000e+00
       21 -1    0    0  501  502 -0.0000000000e+00 -0.0000000000e+00 -3.2195394119e+02 3.2195394119e+02 0.0000000000e+00 0.0000e+00 1.0000e+00
       25  2    1    2    0    0 +0.0000000000e+00 +0.0000000000e+00 -3.0982099452e+02 3.3408688787e+02 1.2500000000e+02 0.0000e+00 0.0000e+00
      -15  1    3    3    0    0 -1.1646002956e+01 -2.6776746136e+01 -7.2983366078e+00 3.0150405715e+01 1.7770000000e+00 0.0000e+00 -1.0000e+00
       15  1    3    3    0    0 +9.9784382678e+00 +2.3459334496e+01 -2.6094129825e+02 2.6218968032e+02 1.7770000000e+00 0.0000e+00 -1.0000e+00
       22  1    3    3    0    0 +1.6675646886e+00 +3.3174116397e+00 -4.1581359647e+01 4.1746801818e+01 0.0000000000e+00 0.0000e+00 1.0000e+00
<mgrwt>
<rscale>  2 0.12500000E+03</rscale>
<asrwt>0</asrwt>
<pdfrwt beam="1">  1       21 0.17842568E-02 0.12500000E+03</pdfrwt>
<pdfrwt beam="2">  1       21 0.47346168E-01 0.12500000E+03</pdfrwt>
<totfact> 0.60187710E+06</totfact>
</mgrwt>
</event>
<event>
 6      0 +1.3698540e+00 1.25000000e+02 7.54677100e-03 1.12640300e-01
       21 -1    0    0  502  501 +0.0000000000e+00 +0.0000000000e+00 +2.5845822145e+02 2.5845822145e+02 0.0000000000e+00 0.0000e+00 1.0000e+00
       21 -1    0    0  501  502 -0.0000000000e+00 -0.0000000000e+00 -1.5113661226e+01 1.5113661226e+01 0.0000000000e+00 0.0000e+00 1.0000e+00
       25  2    1    2    0    0 +0.0000000000e+00 +0.0000000000e+00 +2.4334456022e+02 2.7357188267e+02 1.2500000000e+02 0.0000e+00 0.0000e+00
      -15  1    3    3    0    0 -3.2385933619e+01 +1.5347625650e+00 +1.9548113940e+02 1.9815962703e+02 1.7770000000e+00 0.0000e+00 -1.0000e+00
       15  1    3    3    0    0 -8.0956591689e+00 +9.2732275528e+00 +2.4408197153e+01 2.7394347298e+01 1.7770000000e+00 0.0000e+00 -1.0000e+00
       22  1    3    3    0    0 +4.0481592788e+01 -1.0807990118e+01 +2.3455223671e+01 4.8017908352e+01 0.0000000000e+00 0.0000e+00 -1.0000e+00
<mgrwt>
<rscale>  2 0.12500000E+03</rscale>
<asrwt>0</asrwt>
<pdfrwt beam="1">  1       21 0.38008559E-01 0.12500000E+03</pdfrwt>
<pdfrwt beam="2">  1       21 0.22225974E-02 0.12500000E+03</pdfrwt>
<totfact> 0.67063984E+06</totfact>
</mgrwt>
</event>
<event>
 6      0 +1.3698540e+00 1.25000000e+02 7.54677100e-03 1.12640300e-01
       21 -1    0    0  502  501 +0.0000000000e+00 +0.0000000000e+00 +1.2460733613e+03 1.2460733613e+03 0.0000000000e+00 0.0000e+00 1.0000e+00
       21 -1    0    0  501  502 -0.0000000000e+00 -0.0000000000e+00 -3.1348475308e+00 3.1348475308e+00 0.0000000000e+00 0.0000e+00 1.0000e+00
       25  2    1    2    0    0 +0.0000000000e+00 +0.0000000000e+00 +1.2429385138e+03 1.2492082089e+03 1.2500000000e+02 0.0000e+00 0.0000e+00
      -15  1    3    3    0    0 +5.9741478878e+00 +1.4839753438e+01 +3.4645964946e+01 3.8202216443e+01 1.7770000000e+00 0.0000e+00 -1.0000e+00
       15  1    3    3    0    0 +1.9320740944e+01 -1.2010829491e+01 +1.0784976433e+03 1.0787390210e+03 1.7770000000e+00 0.0000e+00 -1.0000e+00
       22  1    3    3    0    0 -2.5294888831e+01 -2.8289239465e+00 +1.2979490174e+02 1.3226696765e+02 0.0000000000e+00 0.0000e+00 -1.0000e+00
<mgrwt>
<rscale>  2 0.12500000E+03</rscale>
<asrwt>0</asrwt>
<pdfrwt beam="1">  1       21 0.18324574E+00 0.12500000E+03</pdfrwt>
<pdfrwt beam="2">  1       21 0.46100786E-03 0.12500000E+03</pdfrwt>
<totfact> 0.14974774E+06</totfact>
</mgrwt>
</event>
<event>
 6      0 +1.3698540e+00 1.25000000e+02 7.54677100e-03 1.12640300e-01
       21 -1    0    0  502  501 +0.0000000000e+00 +0.0000000000e+00 +4.7082490431e+02 4.7082490431e+02 0.0000000000e+00 0.0000e+00 -1.0000e+00
       21 -1    0    0  501  502 -0.0000000000e+00 -0.0000000000e+00 -8.2966087057e+00 8.2966087057e+00 0.0000000000e+00 0.0000e+00 -1.0000e+00
       25  2    1    2    0    0 +0.0000000000e+00 +0.0000000000e+00 +4.6252829561e+02 4.7912151302e+02 1.2500000000e+02 0.0000e+00 0.0000e+00
      -15  1    3    3    0    0 +1.2698251765e+01 +1.9350720879e+01 +6.5306096065e+01 6.9309017513e+01 1.7770000000e+00 0.0000e+00 -1.0000e+00
       15  1    3    3    0    0 -3.7745415259e+01 +1.0694360882e+00 +3.5311957358e+02 3.5513722847e+02 1.7770000000e+00 0.0000e+00 -1.0000e+00
       22  1    3    3    0    0 +2.5047163494e+01 -2.0420156967e+01 +4.4102625982e+01 5.4675267061e+01 0.0000000000e+00 0.0000e+00 -1.0000e+00
<mgrwt>
<rscale>  2 0.12500000E+03</rscale>
<asrwt>0</asrwt>
<pdfrwt beam="1">  1       21 0.69238938E-01 0.12500000E+03</pdfrwt>
<pdfrwt beam="2">  1       21 0.12200898E-02 0.12500000E+03</pdfrwt>
<totfact> 0.46920874E+06</totfact>
</mgrwt>
</event>
<event>
 6      0 +1.3698540e+00 1.25000000e+02 7.54677100e-03 1.12640300e-01
       21 -1    0    0  502  501 +0.0000000000e+00 +0.0000000000e+00 +9.4946590834e+00 9.4946590834e+00 0.0000000000e+00 0.0000e+00 1.0000e+00
       21 -1    0    0  501  502 -0.0000000000e+00 -0.0000000000e+00 -4.1141550904e+02 4.1141550904e+02 0.0000000000e+00 0.0000e+00 1.0000e+00
       25  2    1    2    0    0 +0.0000000000e+00 +0.0000000000e+00 -4.0192084996e+02 4.2091016813e+02 1.2500000000e+02 0.0000e+00 0.0000e+00
      -15  1    3    3    0    0 -4.3076581540e+01 -2.7898149307e+01 -2.2594019957e+02 2.3170246033e+02 1.7770000000e+00 0.0000e+00 -1.0000e+00
       15  1    3    3    0    0 +3.8541546735e+01 +1.6461126268e-02 -1.2625385825e+02 1.3201759560e+02 1.7770000000e+00 0.0000e+00 -1.0000e+00
       22  1    3    3    0    0 +4.5350348047e+00 +2.7881688181e+01 -4.9726792111e+01 5.7190112171e+01 0.0000000000e+00 0.0000e+00 -1.0000e+00
<mgrwt>
<rscale>  2 0.12500000E+03</rscale>
<asrwt>0</asrwt>
<pdfrwt beam="1">  1       21 0.13962735E-02 0.12500000E+03</pdfrwt>
<pdfrwt beam="2">  1       21 0.60502275E-01 0.12500000E+03</pdfrwt>
<totfact> 0.51767521E+06</totfact>
</mgrwt>
</event>
<event>
 6      0 +1.3698540e+00 1.25000000e+02 7.54677100e-03 1.12640300e-01
       21 -1    0    0  502  501 +0.0000000000e+00 +0.0000000000e+00 +1.0945670303e+02 1.0945670303e+02 0.0000000000e+00 0.0000e+00 1.0000e+00
       21 -1    0    0  501  502 -0.0000000000e+00 -0.0000000000e+00 -3.5687627089e+01 3.5687627089e+01 0.0000000000e+00 0.0000e+00 1.0000e+00
       25  2    1    2    0    0 +0.0000000000e+00 +0.0000000000e+00 +7.3769075938e+01 1.4514433012e+02 1.2500000000e+02 0.0000e+00 0.0000e+00
      -15  1    3    3    0    0 -1.9584944346e+01 -4.9201983044e+01 +3.9018591721e+01 6.5802837396e+01 1.7770000000e+00 0.0000e+00 -1.0000e+00
       15  1    3    3    0    0 +6.3236170114e+00 +2.1993402623e+00 -1.0621193701e+01 1.2680406709e+01 1.7770000000e+00 0.0000e+00 -1.0000e+00
       22  1    3    3    0    0 +1.3261327335e+01 +4.7002642781e+01 +4.5371677914e+01 6.6661086009e+01 0.0000000000e+00 0.0000e+00 -1.0000e+00
<mgrwt>
<rscale>  2 0.12500000E+03</rscale>
<asrwt>0</asrwt>
<pdfrwt beam="1">  1       21 0.16096574E-01 0.12500000E+03</pdfrwt>
<pdfrwt beam="2">  1       21 0.52481805E-02 0.12500000E+03</pdfrwt>
<totfact> 0.85449446E+06</totfact>
</mgrwt>
</event>
<event>
 6      0 +1.3698540e+00 1.25000000e+02 7.54677100e-03 1.12640300e-01
       21 -1    0    0  502  501 +0.0000000000e+00 +0.0000000000e+00 +3.5426728375e+01 3.5426728375e+01 0.0000000000e+00 0.0000e+00 -1.0000e+00
       21 -1    0    0  501  502 -0.0000000000e+00 -0.0000000000e+00 -1.1026279251e+02 1.1026279251e+02 0.0000000000e+00 0.0000e+00 -1.0000e+00
       25  2    1    2    0    0 +0.0000000000e+00 +0.0000000000e+00 -7.4836064132e+01 1.4568952088e+02 1.2500000000e+02 0.0000e+00 0.0000e+00
      -15  1    3    3    0    0 +1.0633759728e+01 +3.2631688131e+01 -9.8261754623e+01 1.0409819435e+02 1.7770000000e+00 0.0000e+00 1.0000e+00
       15  1    3    3    0    0 -1.0633766286e+01 -3.2631715973e+01 +2.3425778856e+01 4.1591233653e+01 1.7770000000e+00 0.0000e+00 1.0000e+00
       22  1    3    3    0    0 +6.5577082618e-06 +2.7841557258e-05 -8.8366479034e-05 9.2880517144e-05 0.0000000000e+00 0.0000e+00 1.0000e+00
<mgrwt>
<rscale>  2 0.12500000E+03</rscale>
<asrwt>0</asrwt>
<pdfrwt beam="1">  1       21 0.52098131E-02 0.12500000E+03</pdfrwt>
<pdfrwt beam="2">  1       21 0.16215116E-01 0.12500000E+03</pdfrwt>
<totfact> 0.85355901E+06</totfact>
</mgrwt>
</event>
<event>
 6      0 +1.3698540e+00 1.25000000e+02 7.54677100e-03 1.12640300e-01
       21 -1    0    0  502  501 +0.0000000000e+00 +0.0000000000e+00 +1.4901351089e+01 1.4901351089e+01 0.0000000000e+00 0.0000e+00 -1.0000e+00
       21 -1    0    0  501  502 -0.0000000000e+00 -0.0000000000e+00 -2.6214065937e+02 2.6214065937e+02 0.0000000000e+00 0.0000e+00 -1.0000e+00
       25  2    1    2    0    0 +0.0000000000e+00 +0.0000000000e+00 -2.4723930828e+02 2.7704201046e+02 1.2500000000e+02 0.0000e+00 0.0000e+00
      -15  1    3    3    0    0 -2.6118257382e+01 +2.4488885080e+01 -1.6914810126e+01 3.9637575502e+01 1.7770000000e+00 0.0000e+00 -1.0000e+00
       15  1    3    3    0    0 +3.0120265201e+01 -2.8450023575e+01 -2.2722207491e+02 2.3097546033e+02 1.7770000000e+00 0.0000e+00 -1.0000e+00
       22  1    3    3    0    0 -4.0020078183e+00 +3.9611384953e+00 -3.1024232339e+00 6.4289746211e+00 0.0000000000e+00 0.0000e+00 1.0000e+00
<mgrwt>
<rscale>  2 0.12500000E+03</rscale>
<asrwt>0</asrwt>
<pdfrwt beam="1">  1       21 0.21913751E-02 0.12500000E+03</pdfrwt>
<pdfrwt beam="2">  1       21 0.38550098E-01 0.12500000E+03</pdfrwt>
<totfact> 0.66645491E+06</totfact>
</mgrwt>
</event>
<event>
 6      0 +1.3698540e+00 1.25000000e+02 7.54677100e-03 1.12640300e-01
       21 -1    0    0  502  501 +0.0000000000e+00 +0.0000000000e+00 +2.0526470424e+02 2.0526470424e+02 0.0000000000e+00 0.0000e+00 1.0000e+00
       21 -1    0    0  501  502 -0.0000000000e+00 -0.0000000000e+00 -1.9030305354e+01 1.9030305354e+01 0.0000000000e+00 0.0000e+00 1.0000e+00
       25  2    1    2    0    0 +0.0000000000e+00 +0.0000000000e+00 +1.8623439889e+02 2.2429500959e+02 1.2500000000e+02 0.0000e+00 0.0000e+00
      -15  1    3    3    0    0 -8.0872065112e-01 -6.1420639305e+01 +1.1357147879e+02 1.2913089284e+02 1.7770000000e+00 0.0000e+00 1.0000e+00
       15  1    3    3    0    0 +8.0874749523e-01 +6.1420630285e+01 +7.2662878318e+01 9.5164066283e+01 1.7770000000e+00 0.0000e+00 1.0000e+00
       22  1    3    3    0    0 -2.6844111234e-05 +9.0201206846e-06 +4.1798068000e-05 5.0488091404e-05 0.0000000000e+00 0.0000e+00 -1.0000e+00
<mgrwt>
<rscale>  2 0.12500000E+03</rscale>
<asrwt>0</asrwt>
<pdfrwt beam="1">  1       21 0.30185985E-01 0.12500000E+03</pdfrwt>
<pdfrwt beam="2">  1       21 0.27985744E-02 0.12500000E+03</pdfrwt>
<totfact> 0.73407155E+06</totfact>
</mgrwt>
</event>
<event>
 6      0 +1.3698540e+00 1.25000000e+02 7.54677100e-03 1.12640300e-01
       21 -1    0    0  502  501 +0.0000000000e+00 +0.0000000000e+00 +1.2394367315e+01 1.2394367315e+01 0.0000000000e+00 0.0000e+00 1.0000e+00
       21 -1    0    0  501  502 -0.0000000000e+00 -0.0000000000e+00 -3.1516332384e+02 3.1516332384e+02 0.0000000000e+00 0.0000e+00 1.0000e+00
       25  2    1    2    0    0 +0.0000000000e+00 +0.0000000000e+00 -3.0276895653e+02 3.2755769116e+02 1.2500000000e+02 0.0000e+00 0.0000e+00
      -15  1    3    3    0    0 -2.2669925219e+01 +1.0128824246e+01 -5.4517418922e+01 5.9931838658e+01 1.7770000000e+00 0.0000e+00 -1.0000e+00
       15  1    3    3    0    0 +3.1064527534e+01 +7.1466563311e+00 -1.8150050060e+01 3.6724128495e+01 1.7770000000e+00 0.0000e+00 -1.0000e+00
       22  1    3    3    0    0 -8.3946023152e+00 -1.7275480578e+01 -2.3010148755e+02 2.3090172401e+02 0.0000000000e+00 0.0000e+00 -1.0000e+00
<mgrwt>
<rscale>  2 0.12500000E+03</rscale>
<asrwt>0</asrwt>
<pdfrwt beam="1">  1       21 0.18227012E-02 0.12500000E+03</pdfrwt>
<pdfrwt beam="2">  1       21 0.46347545E-01 0.12500000E+03</pdfrwt>
<totfact> 0.60885476E+06</totfact>
</mgrwt>
</event>
<event>
 6      0 +1.3698540e+00 1.25000000e+02 7.54677100e-03 1.12640300e-01
       21 -1    0    0  502  501 +0.0000000000e+00 +0.0000000000e+00 +8.9853968684e+01 8.9853968684e+01 0.0000000000e+00 0.0000e+00 1.0000e+00
       21 -1    0    0  501  502 -0.0000000000e+00 -0.0000000000e+00 -4.3473316284e+01 4.3473316284e+01 0.0000000000e+00 0.0000e+00 1.0000e+00
       25  2    1    2    0    0 +0.0000000000e+00 +0.0000000000e+00 +4.6380652400e+01 1.3332728497e+02 1.2500000000e+02 0.0000e+00 0.0000e+00
      -15  1    3    3    0    0 +5.9483714323e+00 -4.4332484374e+01 +6.9711759541e+01 8.2847084685e+01 1.7770000000e+00 0.0000e+00 1.0000e+00
       15  1    3    3    0    0 -5.9483712717e+00 +4.4332484368e+01 -2.3331107380e+01 5.0480199996e+01 1.7770000000e+00 0.0000e+00 1.0000e+00
       22  1    3    3    0    0 -1.6054716040e-07 +6.0297683598e-09 +2.3919259468e-07 2.8814032374e-07 0.0000000000e+00 0.0000e+00 1.0000e+00
<mgrwt>
<rscale>  2 0.12500000E+03</rscale>
<asrwt>0</asrwt>
<pdfrwt beam="1">  1       21 0.13213819E-01 0.12500000E+03</pdfrwt>
<pdfrwt beam="2">  1       21 0.63931347E-02 0.12500000E+03</pdfrwt>
<totfact> 0.87500082E+06</totfact>
</mgrwt>
</event>
<event>
 6      0 +1.3698540e+00 1.25000000e+02 7.54677100e-03 1.12640300e-01
       21 -1    0    0  502  501 +0.0000000000e+00 +0.0000000000e+00 +1.1023598678e+01 1.1023598678e+01 0.0000000000e+00 0.0000e+00 -1.0000e+00
       21 -1    0    0  501  502 -0.0000000000e+00 -0.0000000000e+00 -3.5435342978e+02 3.5435342978e+02 0.0000000000e+00 0.0000e+00 -1.0000e+00
       25  2    1    2    0    0 +0.0000000000e+00 +0.0000000000e+00 -3.4332983110e+02 3.6537702846e+02 1.2500000000e+02 0.0000e+00 0.0000e+00
      -15  1    3    3    0    0 +3.0110203424e+01 -1.4348558157e+01 -6.5237063180e+01 7.3290774404e+01 1.7770000000e+00 0.0000e+00 -1.0000e+00
       15  1    3    3    0    0 -3.2155624895e+01 +1.0273027233e+01 -3.3978074388e+01 4.7928974213e+01 1.7770000000e+00 0.0000e+00 -1.0000e+00
       22  1    3    3    0    0 +2.0454214703e+00 +4.0755309240e+00 -2.4411469350e+02 2.4415727981e+02 0.0000000000e+00 0.0000e+00 -1.0000e+00
<mgrwt>
<rscale>  2 0.12500000E+03</rscale>
<asrwt>0</asrwt>
<pdfrwt beam="1">  1       21 0.16211176E-02 0.12500000E+03</pdfrwt>
<pdfrwt beam="2">  1       21 0.52110795E-01 0.12500000E+03</pdfrwt>
<totfact> 0.56977568E+06</totfact>
</mgrwt>
</event>
<event>
 6      0 +1.3698540e+00 1.25000000e+02 7.54677100e-03 1.12640300e-01
       21 -1    0    0  502  501 +0.0000000000e+00 +0.0000000000e+00 +5.3973171897e+01 5.3973171897e+01 0.0000000000e+00 0.0000e+00 1.0000e+00
       21 -1    0    0  501  502 -0.0000000000e+00 -0.0000000000e+00 -7.2373919536e+01 7.2373919536e+01 0.0000000000e+00 0.0000e+00 1.0000e+00
       25  2    1    2    0    0 +0.0000000000e+00 +0.0000000000e+00 -1.8400747639e+01 1.2634709143e+02 1.2500000000e+02 0.0000e+00 0.0000e+00
      -15  1    3    3    0    0 -1.3189962899e+01 +1.9417723053e+01 +9.6556787069e+00 2.5444310762e+01 1.7770000000e+00 0.0000e+00 -1.0000e+00
       15  1    3    3    0    0 -3.6569144523e+01 +1.1341247977e+01 -8.9101377822e+00 3.9350660999e+01 1.7770000000e+00 0.0000e+00 -1.0000e+00
       22  1    3    3    0    0 +4.9759107422e+01 -3.0758971030e+01 -1.9146288565e+01 6.1552119672e+01 0.0000000000e+00 0.0000e+00 -1.0000e+00
<mgrwt>
<rscale>  2 0.12500000E+03</rscale>
<asrwt>0</asrwt>
<pdfrwt beam="1">  1       21 0.79372312E-02 0.12500000E+03</pdfrwt>
<pdfrwt beam="2">  1       21 0.10643223E-01 0.12500000E+03</pdfrwt>
<totfact> 0.88749376E+06</totfact>
</mgrwt>
</event>
<event>
 6      0 +1.3698540e+00 1.25000000e+02 7.54677100e-03 1.12640300e-01
       21 -1    0    0  502  501 +0.0000000000e+00 +0.0000000000e+00 +1.2612659335e+01 1.2612659335e+01 0.0000000000e+00 0.0000e+00 1.0000e+00
       21 -1    0    0  501  502 -0.0000000000e+00 -0.0000000000e+00 -3.0970867413e+02 3.0970867413e+02 0.0000000000e+00 0.0000e+00 1.0000e+00
       25  2    1    2    0    0 +0.0000000000e+00 +0.0000000000e+00 -2.9709601480e+02 3.2232133347e+02 1.2500000000e+02 0.0000e+00 0.0000e+00
      -15  1    3    3    0    0 +2.4380973159e+01 +1.2253037726e+01 -2.9346111007e+02 2.9473233558e+02 1.7770000000e+00 0.0000e+00 1.0000e+00
       15  1    3    3    0    0 -2.4380862394e+01 -1.2252320723e+01 -3.6300251974e+00 2.7584064713e+01 1.7770000000e+00 0.0000e+00 1.0000e+00
       22  1    3    3    0    0 -1.1076495107e-04 -7.1700288985e-04 -4.8795360138e-03 4.9331768394e-03 0.0000000000e+00 0.0000e+00 -1.0000e+00
<mgrwt>
<rscale>  2 0.12500000E+03</rscale>
<asrwt>0</asrwt>
<pdfrwt beam="1">  1       21 0.18548026E-02 0.12500000E+03</pdfrwt>
<pdfrwt beam="2">  1       21 0.45545399E-01 0.12500000E+03</pdfrwt>
<totfact> 0.61452628E+06</totfact>
</mgrwt>
</event>
<event>
 6      0 +1.3698540e+00 1.25000000e+02 7.54677100e-03 1.12640300e-01
       21 -1    0    0  502  501 +0.0000000000e+00 +0.0000000000e+00 +6.7549595876e+01 6.7549595876e+01 0.0000000000e+00 0.0000e+00 -1.0000e+00
       21 -1    0    0  501  502 -0.0000000000e+00 -0.0000000000e+00 -5.7827881120e+01 5.7827881120e+01 0.0000000000e+00 0.0000e+00 -1.0000e+00
       25  2    1    2    0    0 +0.0000000000e+00 +0.0000000000e+00 +9.7217147556e+00 1.2537747700e+02 1.2500000000e+02 0.0000e+00 0.0000e+00
      -15  1    3    3    0    0 -2.9333234164e+01 -3.3743680436e+01 +2.4591236501e+01 5.1058410057e+01 1.7770000000e+00 0.0000e+00 -1.0000e+00
       15  1    3    3    0    0 +1.0675322851e+01 +2.4139641306e+01 +2.0313058577e+01 3.3353603676e+01 1.7770000000e+00 0.0000e+00 -1.0000e+00
       22  1    3    3    0    0 +1.8657911313e+01 +9.6040391300e+00 -3.5182580323e+01 4.0965463263e+01 0.0000000000e+00 0.0000e+00 -1.0000e+00
<mgrwt>
<rscale>  2 0.12500000E+03</rscale>
<asrwt>0</asrwt>
<pdfrwt beam="1">  1       21 0.99337641E-02 0.12500000E+03</pdfrwt>
<pdfrwt beam="2">  1       21 0.85041002E-02 0.12500000E+03</pdfrwt>
<totfact> 0.88926495E+06</totfact>
</mgrwt>
</event>
<event>
 6      0 +1.3698540e+00 1.25000000e+02 7.54677100e-03 1.12640300e-01
       21 -1    0    0  502  501 +0.0000000000e+00 +0.0000000000e+00 +5.5881255176e+00 5.5881255176e+00 0.0000000000e+00 0.0000e+00 1.0000e+00
       21 -1    0    0  501  502 -0.0000000000e+00 -0.0000000000e+00 -6.9902688973e+02 6.9902688973e+02 0.0000000000e+00 0.0000e+00 1.0000e+00
       25  2    1    2    0    0 +0.0000000000e+00 +0.0000000000e+00 -6.9343876421e+02 7.0461501524e+02 1.2500000000e+02 0.0000e+00 0.0000e+00
      -15  1    3    3    0    0 -5.0418478986e+01 +2.3050610122e+01 -5.0670357494e+02 5.0973034463e+02 1.7770000000e+00 0.0000e+00 -1.0000e+00
       15  1    3    3    0    0 +4.9893226331e+01 -2.3395255252e+01 -1.8435397031e+02 1.9242197405e+02 1.7770000000e+00 0.0000e+00 -1.0000e+00
       22  1    3    3    0    0 +5.2525265471e-01 +3.4464513008e-01 -2.3812191289e+00 2.4626967245e+00 0.0000000000e+00 0.0000e+00 1.0000e+00
<mgrwt>
<rscale>  2 0.12500000E+03</rscale>
<asrwt>0</asrwt>
<pdfrwt beam="1">  1       21 0.82178249E-03 0.12500000E+03</pdfrwt>
<pdfrwt beam="2">  1       21 0.10279816E+00 0.12500000E+03</pdfrwt>
<totfact> 0.32678373E+06</totfact>
</mgrwt>
</event>
<event>
 6      0 +1.3698540e+00 1.25000000e+02 7.54677100e-03 1.12640300e-01
       21 -1    0    0  502  501 +0.0000000000e+00 +0.0000000000e+00 +6.5723142024e+01 6.5723142024e+01 0.0000000000e+00 0.0000e+00 -1.0000e+00
       21 -1    0    0  501  502 -0.0000000000e+00 -0.0000000000e+00 -5.9434924742e+01 5.9434924742e+01 0.0000000000e+00 0.0000e+00 -1.0000e+00
       25  2    1    2    0    0 +0.0000000000e+00 +0.0000000000e+00 +6.2882172823e+00 1.2515806677e+02 1.2500000000e+02 0.0000e+00 0.0000e+00
      -15  1    3    3    0    0 -1.5122882264e+01 -1.3617866830e+01 +6.1728407219e+01 6.5020780153e+01 1.7770000000e+00 0.0000e+00 1.0000e+00
       15  1    3    3    0    0 +1.5244926009e+01 +1.3694537391e+01 -5.5947992449e+01 5.9609426364e+01 1.7770000000e+00 0.0000e+00 1.0000e+00
       22  1    3    3    0    0 -1.2204374448e-01 -7.6670561195e-02 +5.0780251235e-01 5.2786024861e-01 0.0000000000e+00 0.0000e+00 1.0000e+00
<mgrwt>
<rscale>  2 0.12500000E+03</rscale>
<asrwt>0</asrwt>
<pdfrwt beam="1">  1       21 0.96651680E-02 0.12500000E+03</pdfrwt>
<pdfrwt beam="2">  1       21 0.87404301E-02 0.12500000E+03</pdfrwt>
<totfact> 0.88969161E+06</totfact>
</mgrwt>
</event>
<event>
 6      0 +1.3698540e+00 1.25000000e+02 7.54677100e-03 1.12640300e-01
       21 -1    0    0  502  501 +0.0000000000e+00 +0.0000000000e+00 +7.1069610417e+02 7.1069610417e+02 0.0000000000e+00 0.0000e+00 -1.0000e+00
       21 -1    0    0  501  502 -0.0000000000e+00 -0.0000000000e+00 -5.4963717644e+00 5.4963717644e+00 0.0000000000e+00 0.0000e+00 -1.0000e+00
       25  2    1    2    0    0 +0.0000000000e+00 +0.0000000000e+00 +7.0519973240e+02 7.1619247593e+02 1.2500000000e+02 0.0000e+00 0.0000e+00
      -15  1    3    3    0    0 +3.7574497169e+00 -1.1558234243e+01 +1.9166644681e+02 1.9205961514e+02 1.7770000000e+00 0.0000e+00 -1.0000e+00
       15  1    3    3    0    0 +1.8740794042e+01 +1.4603150772e+01 +4.9283496347e+02 4.9341050690e+02 1.7770000000e+00 0.0000e+00 -1.0000e+00
       22  1    3    3    0    0 -2.2498243759e+01 -3.0449165289e+00 +2.0698322084e+01 3.0722353848e+01 0.0000000000e+00 0.0000e+00 -1.0000e+00
<mgrwt>
<rscale>  2 0.12500000E+03</rscale>
<asrwt>0</asrwt>
<pdfrwt beam="1">  1       21 0.10451407E+00 0.12500000E+03</pdfrwt>
<pdfrwt beam="2">  1       21 0.80829045E-03 0.12500000E+03</pdfrwt>
<totfact> 0.32103356E+06</totfact>
</mgrwt>
</event>
<event>
 6      0 +1.3698540e+00 1.25000000e+02 7.54677100e-03 1.12640300e-01
       21 -1    0    0  502  501 +0.0000000000e+00 +0.0000000000e+00 +2.2781825527e+02 2.2781825527e+02 0.0000000000e+00 0.0000e+00 -1.0000e+00
       21 -1    0    0  501  502 -0.0000000000e+00 -0.0000000000e+00 -1.7146343235e+01 1.7146343235e+01 0.0000000000e+00 0.0000e+00 -1.0000e+00
       25  2    1    2    0    0 +0.0000000000e+00 +0.0000000000e+00 +2.1067191203e+02 2.4496459850e+02 1.2500000000e+02 0.0000e+00 0.0000e+00
      -15  1    3    3    0    0 +8.1471534944e+00 -5.4614002454e+00 +7.6200416227e+01 7.6849620460e+01 1.7770000000e+00 0.0000e+00 -1.0000e+00
       15  1    3    3    0    0 +3.5377051401e+01 -2.8395322889e+01 +5.3741095512e+01 7.0349791781e+01 1.7770000000e+00 0.0000e+00 -1.0000e+00
       22  1    3    3    0    0 -4.3524204895e+01 +3.3856723134e+01 +8.0730400292e+01 9.7765186260e+01 0.0000000000e+00 0.0000e+00 -1.0000e+00
<mgrwt>
<rscale>  2 0.12500000E+03</rscale>
<asrwt>0</asrwt>
<pdfrwt beam="1">  1       21 0.33502683E-01 0.12500000E+03</pdfrwt>
<pdfrwt beam="2">  1       21 0.25215212E-02 0.12500000E+03</pdfrwt>
<totfact> 0.70654962E+06</totfact>
</mgrwt>
</event>
<event>
 6      0 +1.3698540e+00 1.25000000e+02 7.54677100e-03 1.12640300e-01
       21 -1    0    0  502  501 +0.0000000000e+00 +0.0000000000e+00 +2.3174777298e+01 2.3174777298e+01 0.0000000000e+00 0.0000e+00 1.0000e+00
       21 -1    0    0  501  502 -0.0000000000e+00 -0.0000000000e+00 -1.6855609656e+02 1.6855609656e+02 0.0000000000e+00 0.0000e+00 1.0000e+00
       25  2    1    2    0    0 +0.0000000000e+00 +0.0000000000e+00 -1.4538131926e+02 1.9173087386e+02 1.2500000000e+02 0.0000e+00 0.0000e+00
      -15  1    3    3    0    0 -5.1429477727e+01 -3.4903896270e+01 -6.3011937327e+01 8.8526465697e+01 1.7770000000e+00 0.0000e+00 1.0000e+00
       15  1    3    3    0    0 +5.1428884414e+01 +3.4903571383e+01 -8.2368775222e+01 1.0320349950e+02 1.7770000000e+00 0.0000e+00 1.0000e+00
       22  1    3    3    0    0 +5.9331316961e-04 +3.2488733714e-04 -6.0670461215e-04 9.0865988437e-04 0.0000000000e+00 0.0000e+00 -1.0000e+00
<mgrwt>
<rscale>  2 0.12500000E+03</rscale>
<asrwt>0</asrwt>
<pdfrwt beam="1">  1       21 0.34080554E-02 0.12500000E+03</pdfrwt>
<pdfrwt beam="2">  1       21 0.24787662E-01 0.12500000E+03</pdfrwt>
<totfact> 0.78039700E+06</totfact>
</mgrwt>
</event>
<event>
 6      0 +1.3698540e+00 1.25000000e+02 7.54677100e-03 1.12640300e-01
       21 -1    0    0  502  501 +0.0000000000e+00 +0.0000000000e+00 +1.5625691790e+02 1.5625691790e+02 0.0000000000e+00 0.0000e+00 1.0000e+00
       21 -1    0    0  501  502 -0.0000000000e+00 -0.0000000000e+00 -2.4998893184e+01 2.4998893184e+01 0.0000000000e+00 0.0000e+00 1.0000e+00
       25  2    1    2    0    0 +0.0000000000e+00 +0.0000000000e+00 +1.3125802472e+02 1.8125581109e+02 1.2500000000e+02 0.0000e+00 0.0000e+00
      -15  1    3    3    0    0 -3.9357922209e+01 +2.3599101775e+01 +1.2687860587e+02 1.3493443594e+02 1.7770000000e+00 0.0000e+00 -1.0000e+00
       15  1    3    3    0    0 +3.9375175751e+01 -2.3597984042e+01 +4.1887833352e+00 4.6129957197e+01 1.7770000000e+00 0.0000e+00 -1.0000e+00
       22  1    3    3    0    0 -1.7253541569e-02 -1.1177326772e-03 +1.9063550712e-01 1.9141794742e-01 0.0000000000e+00 0.0000e+00 1.0000e+00
<mgrwt>
<rscale>  2 0.12500000E+03</rscale>
<asrwt>0</asrwt>
<pdfrwt beam="1">  1       21 0.22978958E-01 0.12500000E+03</pdfrwt>
<pdfrwt beam="2">  1       21 0.36763079E-02 0.12500000E+03</pdfrwt>
<totfact> 0.79614565E+06</totfact>
</mgrwt>
</event>
<event>
 6      0 +1.3698540e+00 1.25000000e+02 7.54677100e-03 1.12640300e-01
       21 -1    0    0  502  501 +0.0000000000e+00 +0.0000000000e+00 +2.5313760482e+01 2.5313760482e+01 0.0000000000e+00 0.0000e+00 -1.0000e+00
       21 -1    0    0  501  502 -0.0000000000e+00 -0.0000000000e+00 -1.5431330334e+02 1.5431330334e+02 0.0000000000e+00 0.0000e+00 -1.0000e+00
       25  2    1    2    0    0 +0.0000000000e+00 +0.0000000000e+00 -1.2899954286e+02 1.7962706382e+02 1.2500000000e+02 0.0000e+00 0.0000e+00
      -15  1    3    3    0    0 +6.1732468407e+01 -8.4856268315e+00 -7.0594664415e+01 9.4178914260e+01 1.7770000000e+00 0.0000e+00 1.0000e+00
       15  1    3    3    0    0 -6.1748207033e+01 +8.4875077650e+00 -5.8377125567e+01 8.5416189205e+01 1.7770000000e+00 0.0000e+00 1.0000e+00
       22  1    3    3    0    0 +1.5738625239e-02 -1.8809335179e-03 -2.7752884976e-02 3.1960363887e-02 0.0000000000e+00 0.0000e+00 -1.0000e+00
<mgrwt>
<rscale>  2 0.12500000E+03</rscale>
<asrwt>0</asrwt>
<pdfrwt beam="1">  1       21 0.37226119E-02 0.12500000E+03</pdfrwt>
<pdfrwt beam="2">  1       21 0.22693133E-01 0.12500000E+03</pdfrwt>
<totfact> 0.79863501E+06</totfact>
</mgrwt>
</event>
<event>
 6      0 +1.3698540e+00 1.25000000e+02 7.54677100e-03 1.12640300e-01
       21 -1    0    0  502  501 +0.0000000000e+00 +0.0000000000e+00 +9.9234028467e+01 9.9234028467e+01 0.0000000000e+00 0.0000e+00 1.0000e+00
       21 -1    0    0  501  502 -0.0000000000e+00 -0.0000000000e+00 -3.9364017166e+01 3.9364017166e+01 0.0000000000e+00 0.0000e+00 1.0000e+00
       25  2    1    2    0    0 +0.0000000000e+00 +0.0000000000e+00 +5.9870011301e+01 1.3859804563e+02 1.2500000000e+02 0.0000e+00 0.0000e+00
      -15  1    3    3    0    0 -4.9317624252e+01 +2.1989422575e+01 +6.4774994012e+01 8.4348801683e+01 1.7770000000e+00 0.0000e+00 -1.0000e+00
       15  1    3    3    0    0 +4.9317595301e+01 -2.1989426595e+01 -4.9049990982e+00 5.4249210439e+01 1.7770000000e+00 0.0000e+00 -1.0000e+00
       22  1    3    3    0    0 +2.8951735945e-05 +4.0191776705e-06 +1.6388410323e-05 3.3510249123e-05 0.0000000000e+00 0.0000e+00 1.0000e+00
<mgrwt>
<rscale>  2 0.12500000E+03</rscale>
<asrwt>0</asrwt>
<pdfrwt beam="1">  1       21 0.14593239E-01 0.12500000E+03</pdfrwt>
<pdfrwt beam="2">  1       21 0.57888261E-02 0.12500000E+03</pdfrwt>
<totfact> 0.86582312E+06</totfact>
</mgrwt>
</event>
<event>
 6      0 +1.3698540e+00 1.25000000e+02 7.54677100e-03 1.12640300e-01
       21 -1    0    0  502  501 +0.0000000000e+00 +0.0000000000e+00 +7.3750857733e+02 7.3750857733e+02 0.0000000000e+00 0.0000e+00 -1.0000e+00
       21 -1    0    0  501  502 -0.0000000000e+00 -0.0000000000e+00 -5.2965485692e+00 5.2965485692e+00 0.0000000000e+00 0.0000e+00 -1.0000e+00
       25  2    1    2    0    0 +0.0000000000e+00 +0.0000000000e+00 +7.3221202876e+02 7.4280512590e+02 1.2500000000e+02 0.0000e+00 0.0000e+00
      -15  1    3    3    0    0 -3.3874469205e+01 -4.6667297445e+01 +3.6943749056e+02 3.7391514208e+02 1.7770000000e+00 0.0000e+00 -1.0000e+00
       15  1    3    3    0    0 -3.9868995020e+00 +7.2657970910e+00 +1.0743575137e+02 1.0776959486e+02 1.7770000000e+00 0.0000e+00 -1.0000e+00
       22  1    3    3    0    0 +3.7861368707e+01 +3.9401500354e+01 +2.5533878676e+02 2.6112038889e+02 0.0000000000e+00 0.0000e+00 -1.0000e+00
<mgrwt>
<rscale>  2 0.12500000E+03</rscale>
<asrwt>0</asrwt>
<pdfrwt beam="1">  1       21 0.10845707E+00 0.12500000E+03</pdfrwt>
<pdfrwt beam="2">  1       21 0.77890471E-03 0.12500000E+03</pdfrwt>
<totfact> 0.30828653E+06</totfact>
</mgrwt>
</event>
<event>
 6      0 +1.3698540e+00 1.25000000e+02 7.54677100e-03 1.12640300e-01
       21 -1    0    0  502  501 +0.0000000000e+00 +0.0000000000e+00 +2.7658047991e+02 2.7658047991e+02 0.0000000000e+00 0.0000e+00 -1.0000e+00
       21 -1    0    0  501  502 -0.0000000000e+00 -0.0000000000e+00 -1.4123375595e+01 1.4123375595e+01 0.0000000000e+00 0.0000e+00 -1.0000e+00
       25  2    1    2    0    0 +0.0000000000e+00 +0.0000000000e+00 +2.6245710431e+02 2.9070385550e+02 1.2500000000e+02 0.0000e+00 0.0000e+00
      -15  1    3    3    0    0 -3.7115004013e+01 -4.5832947680e+01 +8.3609829173e+01 1.0233251624e+02 1.7770000000e+00 0.0000e+00 -1.0000e+00
       15  1    3    3    0    0 +3.6966887079e+01 +4.5764240206e+01 +1.7726140469e+02 1.8677708570e+02 1.7770000000e+00 0.0000e+00 -1.0000e+00
       22  1    3    3    0    0 +1.4811693379e-01 +6.8707473165e-02 +1.5858704501e+00 1.5942535643e+00 0.0000000000e+00 0.0000e+00 1.0000e+00
<mgrwt>
<rscale>  2 0.12500000E+03</rscale>
<asrwt>0</asrwt>
<pdfrwt beam="1">  1       21 0.40673597E-01 0.12500000E+03</pdfrwt>
<pdfrwt beam="2">  1       21 0.20769672E-02 0.12500000E+03</pdfrwt>
<totfact> 0.65027484E+06</totfact>
</mgrwt>
</event>
<event>
 6      0 +1.3698540e+00 1.25000000e+02 7.54677100e-03 1.12640300e-01
       21 -1    0    0  502  501 +0.0000000000e+00 +0.0000000000e+00 +2.6487813394e+01 2.6487813394e+01 0.0000000000e+00 0.0000e+00 1.0000e+00
       21 -1    0    0  501  502 -0.0000000000e+00 -0.0000000000e+00 -1.4747347929e+02 1.4747347929e+02 0.0000000000e+00 0.0000e+00 1.0000e+00
       25  2    1    2    0    0 +0.0000000000e+00 +0.0000000000e+00 -1.2098566590e+02 1.7396129268e+02 1.2500000000e+02 0.0000e+00 0.0000e+00
      -15  1    3    3    0    0 +1.5289388066e+01 +2.6886071484e-01 +1.4573575378e+01 2.1198691040e+01 1.7770000000e+00 0.0000e+00 -1.0000e+00
       15  1    3    3    0    0 +1.2837405103e+01 +2.4151565648e+01 -2.9103732737e+01 3.9978520248e+01 1.7770000000e+00 0.0000e+00 -1.0000e+00
       22  1    3    3    0    0 -2.8126793170e+01 -2.4420426363e+01 -1.0645550855e+02 1.1278408140e+02 0.0000000000e+00 0.0000e+00 -1.0000e+00
<mgrwt>
<rscale>  2 0.12500000E+03</rscale>
<asrwt>0</asrwt>
<pdfrwt beam="1">  1       21 0.38952667E-02 0.12500000E+03</pdfrwt>
<pdfrwt beam="2">  1       21 0.21687276E-01 0.12500000E+03</pdfrwt>
<totfact> 0.80740257E+06</totfact>
</mgrwt>
</event>
<event>
 6      0 +1.3698540e+00 1.25000000e+02 7.54677100e-03 1.12640300e-01
       21 -1    0    0  502  501 +0.0000000000e+00 +0.0000000000e+00 +1.3130109243e+03 1.3130109243e+03 0.0000000000e+00 0.0000e+00 1.0000e+00
       21 -1    0    0  501  502 -0.0000000000e+00 -0.0000000000e+00 -2.9750323686e+00 2.9750323686e+00 0.0000000000e+00 0.0000e+00 1.0000e+00
       25  2    1    2    0    0 +0.0000000000e+00 +0.0000000000e+00 +1.3100358919e+03 1.3159859566e+03 1.2500000000e+02 0.0000e+00 0.0000e+00
      -15  1    3    3    0    0 -1.3484258603e+01 -5.0736885906e+01 +8.5385314075e+02 8.5546735795e+02 1.7770000000e+00 0.0000e+00 -1.0000e+00
       15  1    3    3    0    0 -2.5353509207e+00 -4.2745083918e+00 +5.7164141798e+01 5.7407284057e+01 1.7770000000e+00 0.0000e+00 -1.0000e+00
       22  1    3    3    0    0 +1.6019609524e+01 +5.5011394297e+01 +3.9901861345e+02 4.0311131871e+02 0.0000000000e+00 0.0000e+00 -1.0000e+00
<mgrwt>
<rscale>  2 0.12500000E+03</rscale>
<asrwt>0</asrwt>
<pdfrwt beam="1">  1       21 0.19308944E+00 0.12500000E+03</pdfrwt>
<pdfrwt beam="2">  1       21 0.43750567E-03 0.12500000E+03</pdfrwt>
<totfact> 0.13660286E+06</totfact>
</mgrwt>
</event>
<event>
 6      0 +1.3698540e+00 1.25000000e+02 7.54677100e-03 1.12640300e-01
       21 -1    0    0  502  501 +0.0000000000e+00 +0.0000000000e+00 +7.2798785681e+00 7.2798785681e+00 0.0000000000e+00 0.0000e+00 -1.0000e+00
       21 -1    0    0  501  502 -0.0000000000e+00 -0.0000000000e+00 -5.3658175249e+02 5.3658175249e+02 0.0000000000e+00 0.0000e+00 -1.0000e+00
       25  2    1    2    0    0 +0.0000000000e+00 +0.0000000000e+00 -5.2930187392e+02 5.4386163106e+02 1.2500000000e+02 0.0000e+00 0.0000e+00
      -15  1    3    3    0    0 -2.4993664130e+01 +4.3556799680e+01 -1.0300045461e+02 1.1460422952e+02 1.7770000000e+00 0.0000e+00 -1.0000e+00
       15  1    3    3    0    0 +2.4992410781e+01 -4.3368257869e+01 -4.2392268185e+02 4.2687120341e+02 1.7770000000e+00 0.0000e+00 -1.0000e+00
       22  1    3    3    0    0 +1.2533493578e-03 -1.8854181119e-01 -2.3787373983e+00 2.3861980629e+00 0.0000000000e+00 0.0000e+00 1.0000e+00
<mgrwt>
<rscale>  2 0.12500000E+03</rscale>
<asrwt>0</asrwt>
<pdfrwt beam="1">  1       21 0.10705700E-02 0.12500000E+03</pdfrwt>
<pdfrwt beam="2">  1       21 0.78909109E-01 0.12500000E+03</pdfrwt>
<totfact> 0.42210854E+06</totfact>
</mgrwt>
</event>
<event>
 6      0 +1.3698540e+00 1.25000000e+02 7.54677100e-03 1.12640300e-01
       21 -1    0    0  502  501 +0.0000000000e+00 +0.0000000000e+00 +1.4547092636e+01 1.4547092636e+01 0.0000000000e+00 0.0000e+00 -1.0000e+00
       21 -1    0    0  501  502 -0.0000000000e+00 -0.0000000000e+00 -2.6852444662e+02 2.6852444662e+02 0.0000000000e+00 0.0000e+00 -1.0000e+00
       25  2    1    2    0    0 +0.0000000000e+00 +0.0000000000e+00 -2.5397735398e+02 2.8307153926e+02 1.2500000000e+02 0.0000e+00 0.0000e+00
      -15  1    3    3    0    0 +1.5722800926e+01 +3.4665741132e+01 -1.5467729349e+01 4.1125763913e+01 1.7770000000e+00 0.0000e+00 1.0000e+00
       15  1    3    3    0    0 -1.2906836660e+01 -3.4637240711e+01 -2.3058389897e+02 2.3353461643e+02 1.7770000000e+00 0.0000e+00 1.0000e+00
       22  1    3    3    0    0 -2.8159642666e+00 -2.8500420412e-02 -7.9257256258e+00 8.4111588809e+00 0.0000000000e+00 0.0000e+00 -1.0000e+00
<mgrwt>
<rscale>  2 0.12500000E+03</rscale>
<asrwt>0</asrwt>
<pdfrwt beam="1">  1       21 0.21392784E-02 0.12500000E+03</pdfrwt>
<pdfrwt beam="2">  1       21 0.39488887E-01 0.12500000E+03</pdfrwt>
<totfact> 0.65926031E+06</totfact>
</mgrwt>
</event>
<event>
 6      0 +1.3698540e+00 1.25000000e+02 7.54677100e-03 1.12640300e-01
       21 -1    0    0  502  501 +0.0000000000e+00 +0.0000000000e+00 +3.4330603650e+01 3.4330603650e+01 0.0000000000e+00 0.0000e+00 -1.0000e+00
       21 -1    0    0  501  502 -0.0000000000e+00 -0.0000000000e+00 -1.1378331823e+02 1.1378331823e+02 0.0000000000e+00 0.0000e+00 -1.0000e+00
       25  2    1    2    0    0 +0.0000000000e+00 +0.0000000000e+00 -7.9452714575e+01 1.4811392188e+02 1.2500000000e+02 0.0000e+00 0.0000e+00
      -15  1    3    3    0    0 +1.6841222164e+01 -2.7853149549e+01 -9.9915425929e+01 1.0509840518e+02 1.7770000000e+00 0.0000e+00 -1.0000e+00
       15  1    3    3    0    0 -1.7452196872e+01 +3.0434326097e+01 +1.8399680923e+01 3.9655180842e+01 1.7770000000e+00 0.0000e+00 -1.0000e+00
       22  1    3    3    0    0 +6.1097470789e-01 -2.5811765476e+00 +2.0630304343e+00 3.3603358517e+00 0.0000000000e+00 0.0000e+00 -1.0000e+00
<mgrwt>
<rscale>  2 0.12500000E+03</rscale>
<asrwt>0</asrwt>
<pdfrwt beam="1">  1       21 0.50486183E-02 0.12500000E+03</pdfrwt>
<pdfrwt beam="2">  1       21 0.16732841E-01 0.12500000E+03</pdfrwt>
<totfact> 0.84943154E+06</totfact>
</mgrwt>
</event>
<event>
 6      0 +1.3698540e+00 1.25000000e+02 7.54677100e-03 1.12640300e-01
       21 -1    0    0  502  501 +0.0000000000e+00 +0.0000000000e+00 +1.3895930122e+01 1.3895930122e+01 0.0000000000e+00 0.0000e+00 1.0000e+00
       21 -1    0    0  501  502 -0.0000000000e+00 -0.0000000000e+00 -2.8110748727e+02 2.8110748727e+02 0.0000000000e+00 0.0000e+00 1.0000e+00
       25  2    1    2    0    0 +0.0000000000e+00 +0.0000000000e+00 -2.6721155715e+02 2.9500341739e+02 1.2500000000e+02 0.0000e+00 0.0000e+00
      -15  1    3    3    0    0 +1.0595717378e+01 +3.7087503499e+01 -1.7166764825e+02 1.7595650408e+02 1.7770000000e+00 0.0000e+00 -1.0000e+00
       15  1    3    3    0    0 -1.9661238408e+01 -1.6063438290e+01 -9.2515180571e+01 9.5952148025e+01 1.7770000000e+00 0.0000e+00 -1.0000e+00
       22  1    3    3    0    0 +9.0655210302e+00 -2.1024065209e+01 -3.0287283522e+00 2.3094765313e+01 0.0000000000e+00 0.0000e+00 -1.0000e+00
<mgrwt>
<rscale>  2 0.12500000E+03</rscale>
<asrwt>0</asrwt>
<pdfrwt beam="1">  1       21 0.20435193E-02 0.12500000E+03</pdfrwt>
<pdfrwt beam="2">  1       21 0.41339333E-01 0.12500000E+03</pdfrwt>
<totfact> 0.64526933E+06</totfact>
</mgrwt>
</event>
<event>
 6      0 +1.3698540e+00 1.25000000e+02 7.54677100e-03 1.12640300e-01
       21 -1    0    0  502  501 +0.0000000000e+00 +0.0000000000e+00 +6.6706171901e+01 6.6706171901e+01 0.0000000000e+00 0.0000e+00 1.0000e+00
       21 -1    0    0  501  502 -0.0000000000e+00 -0.0000000000e+00 -5.8559049165e+01 5.8559049165e+01 0.0000000000e+00 0.0000e+00 1.0000e+00
       25  2    1    2    0    0 +0.0000000000e+00 +0.0000000000e+00 +8.1471227359e+00 1.2526522107e+02 1.2500000000e+02 0.0000e+00 0.0000e+00
      -15  1    3    3    0    0 +2.3532696000e+01 +3.4140659271e+01 +4.8679122802e+01 6.3970204957e+01 1.7770000000e+00 0.0000e+00 -1.0000e+00
       15  1    3    3    0    0 +2.2117140388e+00 -8.7949351335e+00 -1.2617733223e+01 1.5639932342e+01 1.7770000000e+00 0.0000e+00 -1.0000e+00
       22  1    3    3    0    0 -2.5744410039e+01 -2.5345724138e+01 -2.7914266843e+01 4.5655083766e+01 0.0000000000e+00 0.0000e+00 -1.0000e+00
<mgrwt>
<rscale>  2 0.12500000E+03</rscale>
<asrwt>0</asrwt>
<pdfrwt beam="1">  1       21 0.98097312E-02 0.12500000E+03</pdfrwt>
<pdfrwt beam="2">  1       21 0.86116249E-02 0.12500000E+03</pdfrwt>
<totfact> 0.88948017E+06</totfact>
</mgrwt>
</event>
<event>
 6      0 +1.3698540e+00 1.25000000e+02 7.54677100e-03 1.12640300e-01
       21 -1    0    0  502  501 +0.0000000000e+00 +0.0000000000e+00 +1.5680441524e+02 1.5680441524e+02 0.0000000000e+00 0.0000e+00 -1.0000e+00
       21 -1    0    0  501  502 -0.0000000000e+00 -0.0000000000e+00 -2.4911607202e+01 2.4911607202e+01 0.0000000000e+00 0.0000e+00 -1.0000e+00
       25  2    1    2    0    0 +0.0000000000e+00 +0.0000000000e+00 +1.3189280804e+02 1.8171602244e+02 1.2500000000e+02 0.0000e+00 0.0000e+00
      -15  1    3    3    0    0 +4.5294293593e+01 -4.2976670590e+01 +6.8976745146e+01 9.3056522324e+01 1.7770000000e+00 0.0000e+00 1.0000e+00
       15  1    3    3    0    0 -4.5295356205e+01 +4.2977583647e+01 +6.2914404463e+01 8.8657329126e+01 1.7770000000e+00 0.0000e+00 1.0000e+00
       22  1    3    3    0    0 +1.0626121137e-03 -9.1305671274e-04 +1.6584367286e-03 2.1709973393e-03 0.0000000000e+00 0.0000e+00 -1.0000e+00
<mgrwt>
<rscale>  2 0.12500000E+03</rscale>
<asrwt>0</asrwt>
<pdfrwt beam="1">  1       21 0.23059472E-01 0.12500000E+03</pdfrwt>
<pdfrwt beam="2">  1       21 0.36634717E-02 0.12500000E+03</pdfrwt>
<totfact> 0.79544462E+06</totfact>
</mgrwt>
</event>
<event>
 6      0 +1.3698540e+00 1.25000000e+02 7.54677100e-03 1.12640300e-01
       21 -1    0    0  502  501 +0.0000000000e+00 +0.0000000000e+00 +4.2011677798e+01 4.2011677798e+01 0.0000000000e+00 0.0000e+00 -1.0000e+00
       21 -1    0    0  501  502 -0.0000000000e+00 -0.0000000000e+00 -9.2980099933e+01 9.2980099933e+01 0.0000000000e+00 0.0000e+00 -1.0000e+00
       25  2    1    2    0    0 +0.0000000000e+00 +0.0000000000e+00 -5.0968422135e+01 1.3499177773e+02 1.2500000000e+02 0.0000e+00 0.0000e+00
      -15  1    3    3    0    0 -1.1341336544e+00 +1.7537449684e+01 -2.7941431334e+01 3.3056462523e+01 1.7770000000e+00 0.0000e+00 -1.0000e+00
       15  1    3    3    0    0 +1.2871976873e+01 +3.7743828084e+01 -2.1636275725e+01 4.5404520736e+01 1.7770000000e+00 0.0000e+00 -1.0000e+00
       22  1    3    3    0    0 -1.1737843219e+01 -5.5281277768e+01 -1.3907150766e+00 5.6530794471e+01 0.0000000000e+00 0.0000e+00 -1.0000e+00
<mgrwt>
<rscale>  2 0.12500000E+03</rscale>
<asrwt>0</asrwt>
<pdfrwt beam="1">  1       21 0.61781880E-02 0.12500000E+03</pdfrwt>
<pdfrwt beam="2">  1       21 0.13673544E-01 0.12500000E+03</pdfrwt>
<totfact> 0.87207331E+06</totfact>
</mgrwt>
</event>
<event>
 6      0 +1.3698540e+00 1.25000000e+02 7.54677100e-03 1.12640300e-01
       21 -1    0    0  502  501 +0.0000000000e+00 +0.0000000000e+00 +1.0060845606e+02 1.0060845606e+02 0.0000000000e+00 0.0000e+00 -1.0000e+00
       21 -1    0    0  501  502 -0.0000000000e+00 -0.0000000000e+00 -3.8826259271e+01 3.8826259271e+01 0.0000000000e+00 0.0000e+00 -1.0000e+00
       25  2    1    2    0    0 +0.0000000000e+00 +0.0000000000e+00 +6.1782196794e+01 1.3943471534e+02 1.2500000000e+02 0.0000e+00 0.0000e+00
      -15  1    3    3    0    0 +4.4173549581e+01 +4.0922816560e+01 +1.2380613840e+01 6.1501355480e+01 1.7770000000e+00 0.0000e+00 -1.0000e+00
       15  1    3    3    0    0 -4.4192078734e+01 -4.0881619936e+01 +4.9345207021e+01 7.7861119029e+01 1.7770000000e+00 0.0000e+00 -1.0000e+00
       22  1    3    3    0    0 +1.8529152526e-02 -4.1196624177e-02 +5.6375929901e-02 7.2240825087e-02 0.0000000000e+00 0.0000e+00 1.0000e+00
<mgrwt>
<rscale>  2 0.12500000E+03</rscale>
<asrwt>0</asrwt>
<pdfrwt beam="1">  1       21 0.14795361E-01 0.12500000E+03</pdfrwt>
<pdfrwt beam="2">  1       21 0.57097440E-02 0.12500000E+03</pdfrwt>
<totfact> 0.86437983E+06</totfact>
</mgrwt>
</event>
<event>
 6      0 +1.3698540e+00 1.25000000e+02 7.54677100e-03 1.12640300e-01
       21 -1    0    0  502  501 +0.0000000000e+00 +0.0000000000e+00 +1.5086411101e+02 1.5086411101e+02 0.0000000000e+00 0.0000e+00 -1.0000e+00
       21 -1    0    0  501  502 -0.0000000000e+00 -0.0000000000e+00 -2.5892506666e+01 2.5892506666e+01 0.0000000000e+00 0.0000e+00 -1.0000e+00
       25  2    1    2    0    0 +0.0000000000e+00 +0.0000000000e+00 +1.2497160435e+02 1.7675661768e+02 1.2500000000e+02 0.0000e+00 0.0000e+00
      -15  1    3    3    0    0 -6.3156153718e+00 -3.8241641101e+01 +1.6167793537e+01 4.2034097926e+01 1.7770000000e+00 0.0000e+00 -1.0000e+00
       15  1    3    3    0    0 +4.9795619186e+00 -7.8014953126e+00 +7.9657874661e+01 8.0213428368e+01 1.7770000000e+00 0.0000e+00 -1.0000e+00
       22  1    3    3    0    0 +1.3360534531e+00 +4.6043136413e+01 +2.9145936151e+01 5.4509091386e+01 0.0000000000e+00 0.0000e+00 -1.0000e+00
<mgrwt>
<rscale>  2 0.12500000E+03</rscale>
<asrwt>0</asrwt>
<pdfrwt beam="1">  1       21 0.22185898E-01 0.12500000E+03</pdfrwt>
<pdfrwt beam="2">  1       21 0.38077216E-02 0.12500000E+03</pdfrwt>
<totfact> 0.80305514E+06</totfact>
</mgrwt>
</event>
<event>
 6      0 +1.3698540e+00 1.25000000e+02 7.54677100e-03 1.12640300e-01
       21 -1    0    0  502  501 +0.0000000000e+00 +0.0000000000e+00 +1.1562602522e+01 1.1562602522e+01 0.0000000000e+00 0.0000e+00 -1.0000e+00
       21 -1    0    0  501  502 -0.0000000000e+00 -0.0000000000e+00 -3.3783484233e+02 3.3783484233e+02 0.0000000000e+00 0.0000e+00 -1.0000e+00
       25  2    1    2    0    0 +0.0000000000e+00 +0.0000000000e+00 -3.2627223981e+02 3.4939744485e+02 1.2500000000e+02 0.0000e+00 0.0000e+00
      -15  1    3    3    0    0 +4.4665250053e+01 +1.7846635119e+01 -8.1862198121e+01 9.4963488550e+01 1.7770000000e+00 0.0000e+00 -1.0000e+00
       15  1    3    3    0    0 -1.6038866616e+01 +3.5450367305e-01 -1.8740640079e+02 1.8810020654e+02 1.7770000000e+00 0.0000e+00 -1.0000e+00
       22  1    3    3    0    0 -2.8626383438e+01 -1.8201138792e+01 -5.7003640926e+01 6.6333749788e+01 0.0000000000e+00 0.0000e+00 -1.0000e+00
<mgrwt>
<rscale>  2 0.12500000E+03</rscale>
<asrwt>0</asrwt>
<pdfrwt beam="1">  1       21 0.17003826E-02 0.12500000E+03</pdfrwt>
<pdfrwt beam="2">  1       21 0.49681597E-01 0.12500000E+03</pdfrwt>
<totfact> 0.58590702E+06</totfact>
</mgrwt>
</event>
<event>
 6      0 +1.3698540e+00 1.25000000e+02 7.54677100e-03 1.12640300e-01
       21 -1    0    0  502  501 +0.0000000000e+00 +0.0000000000e+00 +1.2031354630e+01 1.2031354630e+01 0.0000000000e+00 0.0000e+00 -1.0000e+00
       21 -1    0    0  501  502 -0.0000000000e+00 -0.0000000000e+00 -3.2467250116e+02 3.2467250116e+02 0.0000000000e+00 0.0000e+00 -1.0000e+00
       25  2    1    2    0    0 +0.0000000000e+00 +0.0000000000e+00 -3.1264114653e+02 3.3670385579e+02 1.2500000000e+02 0.0000e+00 0.0000e+00
      -15  1    3    3    0    0 -4.3225926936e+01 +3.6979442268e+01 -8.6748762861e+01 1.0375194214e+02 1.7770000000e+00 0.0000e+00 -1.0000e+00
       15  1    3    3    0    0 +4.3226250769e+01 -3.6979666201e+01 -2.2589177711e+02 2.3295119052e+02 1.7770000000e+00 0.0000e+00 -1.0000e+00
       22  1    3    3    0    0 -3.2383325983e-04 +2.2393330148e-04 -6.0654997007e-04 7.2312998131e-04 0.0000000000e+00 0.0000e+00 1.0000e+00
<mgrwt>
<rscale>  2 0.12500000E+03</rscale>
<asrwt>0</asrwt>
<pdfrwt beam="1">  1       21 0.17693164E-02 0.12500000E+03</pdfrwt>
<pdfrwt beam="2">  1       21 0.47745967E-01 0.12500000E+03</pdfrwt>
<totfact> 0.59910898E+06</totfact>
</mgrwt>
</event>
<event>
 6      0 +1.3698540e+00 1.25000000e+02 7.54677100e-03 1.12640300e-01
       21 -1    0    0  502  501 +0.0000000000e+00 +0.0000000000e+00 +1.8742712864e+01 1.8742712864e+01 0.0000000000e+00 0.0000e+00 -1.0000e+00
       21 -1    0    0  501  502 -0.0000000000e+00 -0.0000000000e+00 -2.0841433299e+02 2.0841433299e+02 0.0000000000e+00 0.0000e+00 -1.0000e+00
       25  2    1    2    0    0 +0.0000000000e+00 +0.0000000000e+00 -1.8967162012e+02 2.2715704585e+02 1.2500000000e+02 0.0000e+00 0.0000e+00
      -15  1    3    3    0    0 -4.8828067295e+01 +1.2103521371e+01 -1.6215730612e+02 1.6979053284e+02 1.7770000000e+00 0.0000e+00 -1.0000e+00
       15  1    3    3    0    0 +4.8825780810e+01 -1.2101803077e+01 -2.7511291498e+01 5.7362351750e+01 1.7770000000e+00 0.0000e+00 -1.0000e+00
       22  1    3    3    0    0 +2.2864844447e-03 -1.7182947988e-03 -3.0225014472e-03 4.1612573977e-03 0.0000000000e+00 0.0000e+00 -1.0000e+00
<mgrwt>
<rscale>  2 0.12500000E+03</rscale>
<asrwt>0</asrwt>
<pdfrwt beam="1">  1       21 0.27562812E-02 0.12500000E+03</pdfrwt>
<pdfrwt beam="2">  1       21 0.30649168E-01 0.12500000E+03</pdfrwt>
<totfact> 0.73019972E+06</totfact>
</mgrwt>
</event>
<event>
 6      0 +1.3698540e+00 1.25000000e+02 7.54677100e-03 1.12640300e-01
       21 -1    0    0  502  501 +0.0000000000e+00 +0.0000000000e+00 +1.1511925378e+02 1.1511925378e+02 0.0000000000e+00 0.0000e+00 -1.0000e+00
       21 -1    0    0  501  502 -0.0000000000e+00 -0.0000000000e+00 -3.3932203970e+01 3.3932203970e+01 0.0000000000e+00 0.0000e+00 -1.0000e+00
       25  2    1    2    0    0 +0.0000000000e+00 +0.0000000000e+00 +8.1187049806e+01 1.4905145775e+02 1.2500000000e+02 0.0000e+00 0.0000e+00
      -15  1    3    3    0    0 -3.6858525234e+01 -5.1175390085e+00 +1.4358884775e+01 3.9925873677e+01 1.7770000000e+00 0.0000e+00 -1.0000e+00
       15  1    3    3    0    0 -2.3986961285e+01 -4.7273343336e+00 +2.1648048059e+01 3.2703481701e+01 1.7770000000e+00 0.0000e+00 -1.0000e+00
       22  1    3    3    0    0 +6.0845486518e+01 +9.8448733421e+00 +4.5180116969e+01 7.6422102366e+01 0.0000000000e+00 0.0000e+00 -1.0000e+00
<mgrwt>
<rscale>  2 0.12500000E+03</rscale>
<asrwt>0</asrwt>
<pdfrwt beam="1">  1       21 0.16929302E-01 0.12500000E+03</pdfrwt>
<pdfrwt beam="2">  1       21 0.49900300E-02 0.12500000E+03</pdfrwt>
<totfact> 0.84784871E+06</totfact>
</mgrwt>
</event>
<event>
 6      0 +1.3698540e+00 1.25000000e+02 7.54677100e-03 1.12640300e-01
       21 -1    0    0  502  501 +0.0000000000e+00 +0.0000000000e+00 +2.8984468761e+02 2.8984468761e+02 0.0000000000e+00 0.0000e+00 -1.0000e+00
       21 -1    0    0  501  502 -0.0000000000e+00 -0.0000000000e+00 -1.3477045352e+01 1.3477045352e+01 0.0000000000e+00 0.0000e+00 -1.0000e+00
       25  2    1    2    0    0 +0.0000000000e+00 +0.0000000000e+00 +2.7636764226e+02 3.0332173297e+02 1.2500000000e+02 0.0000e+00 0.0000e+00
      -15  1    3    3    0    0 +5.6083246329e+00 +1.3008628217e+00 +2.3659165548e+02 2.3666836442e+02 1.7770000000e+00 0.0000e+00 -1.0000e+00
       15  1    3    3    0    0 +7.4846224966e+00 -2.4497371555e+01 +2.6472614324e+01 3.6879504134e+01 1.7770000000e+00 0.0000e+00 -1.0000e+00
       22  1    3    3    0    0 -1.3092947130e+01 +2.3196508734e+01 +1.3303372426e+01 2.9773864375e+01 0.0000000000e+00 0.0000e+00 -1.0000e+00
<mgrwt>
<rscale>  2 0.12500000E+03</rscale>
<asrwt>0</asrwt>
<pdfrwt beam="1">  1       21 0.42624215E-01 0.12500000E+03</pdfrwt>
<pdfrwt beam="2">  1       21 0.19819186E-02 0.12500000E+03</pdfrwt>
<totfact> 0.63569944E+06</totfact>
</mgrwt>
</event>
<event>
 6      0 +1.3698540e+00 1.25000000e+02 7.54677100e-03 1.12640300e-01
       21 -1    0    0  502  501 +0.0000000000e+00 +0.0000000000e+00 +7.1590173263e+00 7.1590173263e+00 0.0000000000e+00 0.0000e+00 1.0000e+00
       21 -1    0    0  501  502 -0.0000000000e+00 -0.0000000000e+00 -5.4564052885e+02 5.4564052885e+02 0.0000000000e+00 0.0000e+00 1.0000e+00
       25  2    1    2    0    0 +0.0000000000e+00 +0.0000000000e+00 -5.3848151153e+02 5.5279954618e+02 1.2500000000e+02 0.0000e+00 0.0000e+00
      -15  1    3    3    0    0 -2.8037360679e+01 -4.0919495248e+00 -2.0388745000e+02 2.0585453029e+02 1.7770000000e+00 0.0000e+00 -1.0000e+00
       15  1    3    3    0    0 -1.8879737523e+01 +2.6293926178e+01 -6.7840150100e+01 7.5188155565e+01 1.7770000000e+00 0.0000e+00 -1.0000e+00
       22  1    3    3    0    0 +4.6917098202e+01 -2.2201976653e+01 -2.6675391148e+02 2.7175686037e+02 0.0000000000e+00 0.0000e+00 -1.0000e+00
<mgrwt>
<rscale>  2 0.12500000E+03</rscale>
<asrwt>0</asrwt>
<pdfrwt beam="1">  1       21 0.10527968E-02 0.12500000E+03</pdfrwt>
<pdfrwt beam="2">  1       21 0.80241244E-01 0.12500000E+03</pdfrwt>
<totfact> 0.41606287E+06</totfact>
</mgrwt>
</event>
<event>
 6      0 +1.3698540e+00 1.25000000e+02 7.54677100e-03 1.12640300e-01
       21 -1    0    0  502  501 +0.0000000000e+00 +0.0000000000e+00 +5.0395066317e+01 5.0395066317e+01 0.0000000000e+00 0.0000e+00 -1.0000e+00
       21 -1    0    0  501  502 -0.0000000000e+00 -0.0000000000e+00 -7.7512548063e+01 7.7512548063e+01 0.0000000000e+00 0.0000e+00 -1.0000e+00
       25  2    1    2    0    0 +0.0000000000e+00 +0.0000000000e+00 -2.7117481746e+01 1.2790761438e+02 1.2500000000e+02 0.0000e+00 0.0000e+00
      -15  1    3    3    0    0 +3.4204404570e+01 -2.2992715110e+01 -2.2114720791e+01 4.6806247925e+01 1.7770000000e+00 0.0000e+00 1.0000e+00
       15  1    3    3    0    0 -4.8130423669e+01 +3.6461576667e+01 -9.6600575160e+00 6.1175638091e+01 1.7770000000e+00 0.0000e+00 1.0000e+00
       22  1    3    3    0    0 +1.3926019099e+01 -1.3468861557e+01 +4.6572965611e+00 1.9925728364e+01 0.0000000000e+00 0.0000e+00 1.0000e+00
<mgrwt>
<rscale>  2 0.12500000E+03</rscale>
<asrwt>0</asrwt>
<pdfrwt beam="1">  1       21 0.74110392E-02 0.12500000E+03</pdfrwt>
<pdfrwt beam="2">  1       21 0.11398904E-01 0.12500000E+03</pdfrwt>
<totfact> 0.88473957E+06</totfact>
</mgrwt>
</event>
<event>
 6      0 +1.3698540e+00 1.25000000e+02 7.54677100e-03 1.12640300e-01
       21 -1    0    0  502  501 +0.0000000000e+00 +0.0000000000e+00 +3.9631762631e+02 3.9631762631e+02 0.0000000000e+00 0.0000e+00 1.0000e+00
       21 -1    0    0  501  502 -0.0000000000e+00 -0.0000000000e+00 -9.8563620205e+00 9.8563620205e+00 0.0000000000e+00 0.0000e+00 1.0000e+00
       25  2    1    2    0    0 +0.0000000000e+00 +0.0000000000e+00 +3.8646126429e+02 4.0617398833e+02 1.2500000000e+02 0.0000e+00 0.0000e+00
      -15  1    3    3    0    0 +5.6131040428e+01 -2.4967396244e+01 +1.5655000009e+02 1.6818182075e+02 1.7770000000e+00 0.0000e+00 -1.0000e+00
       15  1    3    3    0    0 -5.6111764102e+01 +2.4972404406e+01 +2.2990027481e+02 2.3796942060e+02 1.7770000000e+00 0.0000e+00 -1.0000e+00
       22  1    3    3    0    0 -1.9276325823e-02 -5.0081619062e-03 +1.0989389538e-02 2.2746980135e-02 0.0000000000e+00 0.0000e+00 1.0000e+00
<mgrwt>
<rscale>  2 0.12500000E+03</rscale>
<asrwt>0</asrwt>
<pdfrwt beam="1">  1       21 0.58281993E-01 0.12500000E+03</pdfrwt>
<pdfrwt beam="2">  1       21 0.14494653E-02 0.12500000E+03</pdfrwt>
<totfact> 0.53089447E+06</totfact>
</mgrwt>
</event>
<event>
 6      0 +1.3698540e+00 1.25000000e+02 7.54677100e-03 1.12640300e-01
       21 -1    0    0  502  501 +0.0000000000e+00 +0.0000000000e+00 +3.8680346175e+01 3.8680346175e+01 0.0000000000e+00 0.0000e+00 1.0000e+00
       21 -1    0    0  501  502 -0.0000000000e+00 -0.0000000000e+00 -1.0098797933e+02 1.0098797933e+02 0.0000000000e+00 0.0000e+00 1.0000e+00
       25  2    1    2    0    0 +0.0000000000e+00 +0.0000000000e+00 -6.2307633157e+01 1.3966832551e+02 1.2500000000e+02 0.0000e+00 0.0000e+00
      -15  1    3    3    0    0 -9.1619599114e+00 -1.5606203741e+01 -1.5313331312e+01 2.3772903682e+01 1.7770000000e+00 0.0000e+00 -1.0000e+00
       15  1    3    3    0    0 -1.1462286358e+01 -1.8865514477e+01 -6.7324558111e+01 7.0873447065e+01 1.7770000000e+00 0.0000e+00 -1.0000e+00
       22  1    3    3    0    0 +2.0624246270e+01 +3.4471718218e+01 +2.0330256268e+01 4.5021974757e+01 0.0000000000e+00 0.0000e+00 -1.0000e+00
<mgrwt>
<rscale>  2 0.12500000E+03</rscale>
<asrwt>0</asrwt>
<pdfrwt beam="1">  1       21 0.56882863E-02 0.12500000E+03</pdfrwt>
<pdfrwt beam="2">  1       21 0.14851173E-01 0.12500000E+03</pdfrwt>
<totfact> 0.86397634E+06</totfact>
</mgrwt>
</event>
<event>
 6      0 +1.3698540e+00 1.25000000e+02 7.54677100e-03 1.12640300e-01
       21 -1    0    0  502  501 +0.0000000000e+00 +0.0000000000e+00 +1.2425517705e+00 1.2425517705e+00 0.0000000000e+00 0.0000e+00 -1.0000e+00
       21 -1    0    0  501  502 -0.0000000000e+00 -0.0000000000e+00 -3.1437321910e+03 3.1437321910e+03 0.0000000000e+00 0.0000e+00 -1.0000e+00
       25  2    1    2    0    0 +0.0000000000e+00 +0.0000000000e+00 -3.1424896392e+03 3.1449747427e+03 1.2500000000e+02 0.0000e+00 0.0000e+00
      -15  1    3    3    0    0 +2.8010164760e+01 +1.5793920690e+01 -2.2359185267e+02 2.2589929519e+02 1.7770000000e+00 0.0000e+00 1.0000e+00
       15  1    3    3    0    0 -2.8010172019e+01 -1.5793926845e+01 -2.9188977545e+03 2.9190754147e+03 1.7770000000e+00 0.0000e+00 1.0000e+00
       22  1    3    3    0    0 +7.2593842811e-06 +6.1553447185e-06 -5.8005913320e-05 5.8781569465e-05 0.0000000000e+00 0.0000e+00 1.0000e+00
<mgrwt>
<rscale>  2 0.12500000E+03</rscale>
<asrwt>0</asrwt>
<pdfrwt beam="1">  1       21 0.18272542E-03 0.12500000E+03</pdfrwt>
<pdfrwt beam="2">  1       21 0.46232060E+00 0.12500000E+03</pdfrwt>
<totfact> 0.10642565E+05</totfact>
</mgrwt>
</event>
<event>
 6      0 +1.3698540e+00 1.25000000e+02 7.54677100e-03 1.12640300e-01
       21 -1    0    0  502  501 +0.0000000000e+00 +0.0000000000e+00 +9.6221112435e+00 9.6221112435e+00 0.0000000000e+00 0.0000e+00 1.0000e+00
       21 -1    0    0  501  502 -0.0000000000e+00 -0.0000000000e+00 -4.0596599864e+02 4.0596599864e+02 0.0000000000e+00 0.0000e+00 1.0000e+00
       25  2    1    2    0    0 +0.0000000000e+00 +0.0000000000e+00 -3.9634388740e+02 4.1558810989e+02 1.2500000000e+02 0.0000e+00 0.0000e+00
      -15  1    3    3    0    0 -7.5521666337e+00 +1.0317555808e+01 -6.2811090933e+00 1.4356087180e+01 1.7770000000e+00 0.0000e+00 -1.0000e+00
       15  1    3    3    0    0 -4.1096177897e+01 +1.6922411820e+00 -2.2483106284e+02 2.2856929817e+02 1.7770000000e+00 0.0000e+00 -1.0000e+00
       22  1    3    3    0    0 +4.8648344531e+01 -1.2009796990e+01 -1.6523171544e+02 1.7266272451e+02 0.0000000000e+00 0.0000e+00 -1.0000e+00
<mgrwt>
<rscale>  2 0.12500000E+03</rscale>
<asrwt>0</asrwt>
<pdfrwt beam="1">  1       21 0.14150170E-02 0.12500000E+03</pdfrwt>
<pdfrwt beam="2">  1       21 0.59700855E-01 0.12500000E+03</pdfrwt>
<totfact> 0.52240141E+06</totfact>
</mgrwt>
</event>
<event>
 6      0 +1.3698540e+00 1.25000000e+02 7.54677100e-03 1.12640300e-01
       21 -1    0    0  502  501 +0.0000000000e+00 +0.0000000000e+00 +3.5497736820e+02 3.5497736820e+02 0.0000000000e+00 0.0000e+00 -1.0000e+00
       21 -1    0    0  501  502 -0.0000000000e+00 -0.0000000000e+00 -1.1004222663e+01 1.1004222663e+01 0.0000000000e+00 0.0000e+00 -1.0000e+00
       25  2    1    2    0    0 +0.0000000000e+00 +0.0000000000e+00 +3.4397314554e+02 3.6598159086e+02 1.2500000000e+02 0.0000e+00 0.0000e+00
      -15  1    3    3    0    0 -3.6852838443e+01 +2.0329319310e+01 +5.9439566680e+01 7.2853501913e+01 1.7770000000e+00 0.0000e+00 -1.0000e+00
       15  1    3    3    0    0 +1.2259156479e+01 +5.0893433752e+00 +1.1036948801e+01 1.7353970768e+01 1.7770000000e+00 0.0000e+00 -1.0000e+00
       22  1    3    3    0    0 +2.4593681964e+01 -2.5418662685e+01 +2.7349663011e+02 2.7577411823e+02 0.0000000000e+00 0.0000e+00 -1.0000e+00
<mgrwt>
<rscale>  2 0.12500000E+03</rscale>
<asrwt>0</asrwt>
<pdfrwt beam="1">  1       21 0.52202547E-01 0.12500000E+03</pdfrwt>
<pdfrwt beam="2">  1       21 0.16182683E-02 0.12500000E+03</pdfrwt>
<totfact> 0.56917524E+06</totfact>
</mgrwt>
</event>
<event>
 6      0 +1.3698540e+00 1.25000000e+02 7.54677100e-03 1.12640300e-01
       21 -1    0    0  502  501 +0.0000000000e+00 +0.0000000000e+00 +5.2885883794e+01 5.2885883794e+01 0.0000000000e+00 0.0000e+00 -1.0000e+00
       21 -1    0    0  501  502 -0.0000000000e+00 -0.0000000000e+00 -7.3861864826e+01 7.3861864826e+01 0.0000000000e+00 0.0000e+00 -1.0000e+00
       25  2    1    2    0    0 +0.0000000000e+00 +0.0000000000e+00 -2.0975981032e+01 1.2674774862e+02 1.2500000000e+02 0.0000e+00 0.0000e+00
      -15  1    3    3    0    0 +1.0650572282e+01 -3.2162534071e+00 -4.6243864087e+01 4.7596551036e+01 1.7770000000e+00 0.0000e+00 -1.0000e+00
       15  1    3    3    0    0 +1.4356585443e+01 +2.8636483810e+01 -4.8850403283e+00 3.2452751788e+01 1.7770000000e+00 0.0000e+00 -1.0000e+00
       22  1    3    3    0    0 -2.5007157725e+01 -2.5420230403e+01 +3.0152923383e+01 4.6698445796e+01 0.0000000000e+00 0.0000e+00 -1.0000e+00
<mgrwt>
<rscale>  2 0.12500000E+03</rscale>
<asrwt>0</asrwt>
<pdfrwt beam="1">  1       21 0.77773359E-02 0.12500000E+03</pdfrwt>
<pdfrwt beam="2">  1       21 0.10862039E-01 0.12500000E+03</pdfrwt>
<totfact> 0.88678071E+06</totfact>
</mgrwt>
</event>
<event>
 6      0 +1.3698540e+00 1.25000000e+02 7.54677100e-03 1.12640300e-01
       21 -1    0    0  502  501 +0.0000000000e+00 +0.0000000000e+00 +7.0463292792e+01 7.0463292792e+01 0.0000000000e+00 0.0000e+00 -1.0000e+00
       21 -1    0    0  501  502 -0.0000000000e+00 -0.0000000000e+00 -5.5436665606e+01 5.5436665606e+01 0.0000000000e+00 0.0000e+00 -1.0000e+00
       25  2    1    2    0    0 +0.0000000000e+00 +0.0000000000e+00 +1.5026627187e+01 1.2589995840e+02 1.2500000000e+02 0.0000e+00 0.0000e+00
      -15  1    3    3    0    0 +1.5868254005e+01 -2.5363764428e+01 -1.0589412197e+01 3.1787032116e+01 1.7770000000e+00 0.0000e+00 -1.0000e+00
       15  1    3    3    0    0 -1.4882486468e+01 +3.2225457866e+01 -2.4726214893e+01 4.3295634538e+01 1.7770000000e+00 0.0000e+00 -1.0000e+00
       22  1    3    3    0    0 -9.8576753655e-01 -6.8616934385e+00 +5.0342254276e+01 5.0817291743e+01 0.0000000000e+00 0.0000e+00 -1.0000e+00
<mgrwt>
<rscale>  2 0.12500000E+03</rscale>
<asrwt>0</asrwt>
<pdfrwt beam="1">  1       21 0.10362249E-01 0.12500000E+03</pdfrwt>
<pdfrwt beam="2">  1       21 0.81524508E-02 0.12500000E+03</pdfrwt>
<totfact> 0.88829896E+06</totfact>
</mgrwt>
</event>
<event>
 6      0 +1.3698540e+00 1.25000000e+02 7.54677100e-03 1.12640300e-01
       21 -1    0    0  502  501 +0.0000000000e+00 +0.0000000000e+00 +2.3260925898e+01 2.3260925898e+01 0.0000000000e+00 0.0000e+00 1.0000e+00
       21 -1    0    0  501  502 -0.0000000000e+00 -0.0000000000e+00 -1.6793183630e+02 1.6793183630e+02 0.0000000000e+00 0.0000e+00 1.0000e+00
       25  2    1    2    0    0 +0.0000000000e+00 +0.0000000000e+00 -1.4467091040e+02 1.9119276219e+02 1.2500000000e+02 0.0000e+00 0.0000e+00
      -15  1    3    3    0    0 +5.2219300079e+00 -2.7181886966e+00 -1.0086666897e+02 1.0105394471e+02 1.7770000000e+00 0.0000e+00 -1.0000e+00
       15  1    3    3    0    0 -3.4115242308e+00 +7.2731397680e+00 -6.6455708969e+01 6.6963094636e+01 1.7770000000e+00 0.0000e+00 -1.0000e+00
       22  1    3    3    0    0 -1.8104057772e+00 -4.5549510714e+00 +2.2651467535e+01 2.3175722854e+01 0.0000000000e+00 0.0000e+00 -1.0000e+00
<mgrwt>
<rscale>  2 0.12500000E+03</rscale>
<asrwt>0</asrwt>
<pdfrwt beam="1">  1       21 0.34207245E-02 0.12500000E+03</pdfrwt>
<pdfrwt beam="2">  1       21 0.24695858E-01 0.12500000E+03</pdfrwt>
<totfact> 0.78119801E+06</totfact>
</mgrwt>
</event>
<event>
 6      0 +1.3698540e+00 1.25000000e+02 7.54677100e-03 1.12640300e-01
       21 -1    0    0  502  501 +0.0000000000e+00 +0.0000000000e+00 +4.0363364311e+02 4.0363364311e+02 0.0000000000e+00 0.0000e+00 1.0000e+00
       21 -1    0    0  501  502 -0.0000000000e+00 -0.0000000000e+00 -9.6777116246e+00 9.6777116246e+00 0.0000000000e+00 0.0000e+00 1.0000e+00
       25  2    1    2    0    0 +0.0000000000e+00 +0.0000000000e+00 +3.9395593148e+02 4.1331135473e+02 1.2500000000e+02 0.0000e+00 0.0000e+00
      -15  1    3    3    0    0 +2.2475084745e+01 +5.7549913897e+01 +1.6633498604e+02 1.7744747768e+02 1.7770000000e+00 0.0000e+00 1.0000e+00
       15  1    3    3    0    0 -2.2475774328e+01 -5.7550361779e+01 +2.2761903359e+02 2.3586179588e+02 1.7770000000e+00 0.0000e+00 1.0000e+00
       22  1    3    3    0    0 +6.8958309904e-04 +4.4788230959e-04 +1.9118375225e-03 2.0811646082e-03 0.0000000000e+00 0.0000e+00 1.0000e+00
<mgrwt>
<rscale>  2 0.12500000E+03</rscale>
<asrwt>0</asrwt>
<pdfrwt beam="1">  1       21 0.59357877E-01 0.12500000E+03</pdfrwt>
<pdfrwt beam="2">  1       21 0.14231932E-02 0.12500000E+03</pdfrwt>
<totfact> 0.52443959E+06</totfact>
</mgrwt>
</event>
<event>
 6      0 +1.3698540e+00 1.25000000e+02 7.54677100e-03 1.12640300e-01
       21 -1    0    0  502  501 +0.0000000000e+00 +0.0000000000e+00 +9.9527833878e+01 9.9527833878e+01 0.0000000000e+00 0.0000e+00 1.0000e+00
       21 -1    0    0  501  502 -0.0000000000e+00 -0.0000000000e+00 -3.9247814885e+01 3.9247814885e+01 0.0000000000e+00 0.0000e+00 1.0000e+00
       25  2    1    2    0    0 +0.0000000000e+00 +0.0000000000e+00 +6.0280018993e+01 1.3877564876e+02 1.2500000000e+02 0.0000e+00 0.0000e+00
      -15  1    3    3    0    0 +3.6443124392e+01 +2.3535846119e+01 -1.6176351218e+00 4.3448956724e+01 1.7770000000e+00 0.0000e+00 -1.0000e+00
       15  1    3    3    0    0 +9.4102196958e-01 -3.3133693026e+01 +2.2047571720e+01 3.9849470306e+01 1.7770000000e+00 0.0000e+00 -1.0000e+00
       22  1    3    3    0    0 -3.7384146362e+01 +9.5978469075e+00 +3.9850082396e+01 5.5477221735e+01 0.0000000000e+00 0.0000e+00 -1.0000e+00
<mgrwt>
<rscale>  2 0.12500000E+03</rscale>
<asrwt>0</asrwt>
<pdfrwt beam="1">  1       21 0.14636446E-01 0.12500000E+03</pdfrwt>
<pdfrwt beam="2">  1       21 0.57717375E-02 0.12500000E+03</pdfrwt>
<totfact> 0.86551700E+06</totfact>
</mgrwt>
</event>
<event>
 6      0 +1.3698540e+00 1.25000000e+02 7.54677100e-03 1.12640300e-01
       21 -1    0    0  502  501 +0.0000000000e+00 +0.0000000000e+00 +5.5360847691e+00 5.5360847691e+00 0.0000000000e+00 0.0000e+00 -1.0000e+00
       21 -1    0    0  501  502 -0.0000000000e+00 -0.0000000000e+00 -7.0559793843e+02 7.0559793843e+02 0.0000000000e+00 0.0000e+00 -1.0000e+00
       25  2    1    2    0    0 +0.0000000000e+00 +0.0000000000e+00 -7.0006185366e+02 7.1113402320e+02 1.2500000000e+02 0.0000e+00 0.0000e+00
      -15  1    3    3    0    0 +5.4374337331e+01 -7.2910990031e+00 -4.7729512914e+02 4.8044097111e+02 1.7770000000e+00 0.0000e+00 -1.0000e+00
       15  1    3    3    0    0 -1.7932336726e+01 +1.1480236332e+00 -1.2267368441e+02 1.2399547263e+02 1.7770000000e+00 0.0000e+00 -1.0000e+00
       22  1    3    3    0    0 -3.6442000606e+01 +6.1430753699e+00 -1.0009304005e+02 1.0669757940e+02 0.0000000000e+00 0.0000e+00 -1.0000e+00
<mgrwt>
<rscale>  2 0.12500000E+03</rscale>
<asrwt>0</asrwt>
<pdfrwt beam="1">  1       21 0.81413127E-03 0.12500000E+03</pdfrwt>
<pdfrwt beam="2">  1       21 0.10376426E+00 0.12500000E+03</pdfrwt>
<totfact> 0.32352988E+06</totfact>
</mgrwt>
</event>
<event>
 6      0 +1.3698540e+00 1.25000000e+02 7.54677100e-03 1.12640300e-01
       21 -1    0    0  502  501 +0.0000000000e+00 +0.0000000000e+00 +1.1715754827e+01 1.1715754827e+01 0.0000000000e+00 0.0000e+00 1.0000e+00
       21 -1    0    0  501  502 -0.0000000000e+00 -0.0000000000e+00 -3.3341855114e+02 3.3341855114e+02 0.0000000000e+00 0.0000e+00 1.0000e+00
       25  2    1    2    0    0 +0.0000000000e+00 +0.0000000000e+00 -3.2170279631e+02 3.4513430596e+02 1.2500000000e+02 0.0000e+00 0.0000e+00
      -15  1    3    3    0    0 +5.9274801866e+01 +1.4237491530e+01 -1.9859680582e+02 2.0774998752e+02 1.7770000000e+00 0.0000e+00 1.0000e+00
       15  1    3    3    0    0 -5.9274779094e+01 -1.4237489508e+01 -1.2310594497e+02 1.3738426752e+02 1.7770000000e+00 0.0000e+00 1.0000e+00
       22  1    3    3    0    0 -2.2771376683e-05 -2.0220119278e-06 -4.5545831485e-05 5.0961229321e-05 0.0000000000e+00 0.0000e+00 1.0000e+00
<mgrwt>
<rscale>  2 0.12500000E+03</rscale>
<asrwt>0</asrwt>
<pdfrwt beam="1">  1       21 0.17229055E-02 0.12500000E+03</pdfrwt>
<pdfrwt beam="2">  1       21 0.49032130E-01 0.12500000E+03</pdfrwt>
<totfact> 0.59030027E+06</totfact>
</mgrwt>
</event>
<event>
 6      0 +1.3698540e+00 1.25000000e+02 7.54677100e-03 1.12640300e-01
       21 -1    0    0  502  501 +0.0000000000e+00 +0.0000000000e+00 +2.0667509713e+02 2.0667509713e+02 0.0000000000e+00 0.0000e+00 -1.0000e+00
       21 -1    0    0  501  502 -0.0000000000e+00 -0.0000000000e+00 -1.8900438680e+01 1.8900438680e+01 0.0000000000e+00 0.0000e+00 -1.0000e+00
       25  2    1    2    0    0 +0.0000000000e+00 +0.0000000000e+00 +1.8777465845e+02 2.2557553581e+02 1.2500000000e+02 0.0000e+00 0.0000e+00
      -15  1    3    3    0    0 +3.8458015067e+01 +1.0874442955e+01 +1.7847493771e+02 1.8290361820e+02 1.7770000000e+00 0.0000e+00 -1.0000e+00
       15  1    3    3    0    0 -2.1891312933e+01 -1.1781070180e+01 +3.9189972447e+00 2.5229733746e+01 1.7770000000e+00 0.0000e+00 -1.0000e+00
       22  1    3    3    0    0 -1.6566702134e+01 +9.0662722458e-01 +5.3807234977e+00 1.7442183863e+01 0.0000000000e+00 0.0000e+00 -1.0000e+00
<mgrwt>
<rscale>  2 0.12500000E+03</rscale>
<asrwt>0</asrwt>
<pdfrwt beam="1">  1       21 0.30393395E-01 0.12500000E+03</pdfrwt>
<pdfrwt beam="2">  1       21 0.27794764E-02 0.12500000E+03</pdfrwt>
<totfact> 0.73233619E+06</totfact>
</mgrwt>
</event>
<event>
 6      0 +1.3698540e+00 1.25000000e+02 7.54677100e-03 1.12640300e-01
       21 -1    0    0  502  501 +0.0000000000e+00 +0.0000000000e+00 +2.3561330603e+02 2.3561330603e+02 0.0000000000e+00 0.0000e+00 -1.0000e+00
       21 -1    0    0  501  502 -0.0000000000e+00 -0.0000000000e+00 -1.6579072149e+01 1.6579072149e+01 0.0000000000e+00 0.0000e+00 -1.0000e+00
       25  2    1    2    0    0 +0.0000000000e+00 +0.0000000000e+00 +2.1903423388e+02 2.5219237818e+02 1.2500000000e+02 0.0000e+00 0.0000e+00
      -15  1    3    3    0    0 -2.3976594774e+01 +8.4069773216e+00 +2.1955136246e+02 2.2102378345e+02 1.7770000000e+00 0.0000e+00 -1.0000e+00
       15  1    3    3    0    0 +2.3712049653e+00 -4.7815388534e-01 -6.6971183341e+00 7.3389622634e+00 1.7770000000e+00 0.0000e+00 -1.0000e+00
       22  1    3    3    0    0 +2.1605389809e+01 -7.9288234362e+00 +6.1799897505e+00 2.3829632460e+01 0.0000000000e+00 0.0000e+00 -1.0000e+00
<mgrwt>
<rscale>  2 0.12500000E+03</rscale>
<asrwt>0</asrwt>
<pdfrwt beam="1">  1       21 0.34649014E-01 0.12500000E+03</pdfrwt>
<pdfrwt beam="2">  1       21 0.24380990E-02 0.12500000E+03</pdfrwt>
<totfact> 0.69722157E+06</totfact>
</mgrwt>
</event>
<event>
 6      0 +1.3698540e+00 1.25000000e+02 7.54677100e-03 1.12640300e-01
       21 -1    0    0  502  501 +0.0000000000e+00 +0.0000000000e+00 +7.2468062622e+02 7.2468062622e+02 0.0000000000e+00 0.0000e+00 1.0000e+00
       21 -1    0    0  501  502 -0.0000000000e+00 -0.0000000000e+00 -5.3903055479e+00 5.3903055479e+00 0.0000000000e+00 0.0000e+00 1.0000e+00
       25  2    1    2    0    0 +0.0000000000e+00 +0.0000000000e+00 +7.1929032067e+02 7.3007093177e+02 1.2500000000e+02 0.0000e+00 0.0000e+00
      -15  1    3    3    0    0 -1.1450584776e+00 +1.4224348614e+01 +1.5748076833e+01 2.1326108537e+01 1.7770000000e+00 0.0000e+00 -1.0000e+00
       15  1    3    3    0    0 +1.3988814365e+01 +2.8394393048e+01 +1.4468055469e+02 1.4811329825e+02 1.7770000000e+00 0.0000e+00 -1.0000e+00
       22  1    3    3    0    0 -1.2843755888e+01 -4.2618741662e+01 +5.5886168901e+02 5.6063152485e+02 0.0000000000e+00 0.0000e+00 -1.0000e+00
<mgrwt>
<rscale>  2 0.12500000E+03</rscale>
<asrwt>0</asrwt>
<pdfrwt beam="1">  1       21 0.10657061E+00 0.12500000E+03</pdfrwt>
<pdfrwt beam="2">  1       21 0.79269249E-03 0.12500000E+03</pdfrwt>
<totfact> 0.31430916E+06</totfact>
</mgrwt>
</event>
<event>
 6      0 +1.3698540e+00 1.25000000e+02 7.54677100e-03 1.12640300e-01
       21 -1    0    0  502  501 +0.0000000000e+00 +0.0000000000e+00 +2.7802825596e+01 2.7802825596e+01 0.0000000000e+00 0.0000e+00 1.0000e+00
       21 -1    0    0  501  502 -0.0000000000e+00 -0.0000000000e+00 -1.4049830966e+02 1.4049830966e+02 0.0000000000e+00 0.0000e+00 1.0000e+00
       25  2    1    2    0    0 +0.0000000000e+00 +0.0000000000e+00 -1.1269548407e+02 1.6830113526e+02 1.2500000000e+02 0.0000e+00 0.0000e+00
      -15  1    3    3    0    0 +1.0927379260e+00 -2.3335163008e+00 +7.7407593649e-01 3.2243289312e+00 1.7770000000e+00 0.0000e+00 -1.0000e+00
       15  1    3    3    0    0 +3.2774750310e+01 +3.8499899476e+01 -1.0253387590e+02 1.1433625826e+02 1.7770000000e+00 0.0000e+00 -1.0000e+00
       22  1    3    3    0    0 -3.3867488236e+01 -3.6166383175e+01 -1.0935684110e+01 5.0740548069e+01 0.0000000000e+00 0.0000e+00 -1.0000e+00
<mgrwt>
<rscale>  2 0.12500000E+03</rscale>
<asrwt>0</asrwt>
<pdfrwt beam="1">  1       21 0.40886508E-02 0.12500000E+03</pdfrwt>
<pdfrwt beam="2">  1       21 0.20661516E-01 0.12500000E+03</pdfrwt>
<totfact> 0.81634818E+06</totfact>
</mgrwt>
</event>
<event>
 6      0 +1.3698540e+00 1.25000000e+02 7.54677100e-03 1.12640300e-01
       21 -1    0    0  502  501 +0.0000000000e+00 +0.0000000000e+00 +9.0247631077e+01 9.0247631077e+01 0.0000000000e+00 0.0000e+00 -1.0000e+00
       21 -1    0    0  501  502 -0.0000000000e+00 -0.0000000000e+00 -4.3283684606e+01 4.3283684606e+01 0.0000000000e+00 0.0000e+00 -1.0000e+00
       25  2    1    2    0    0 +0.0000000000e+00 +0.0000000000e+00 +4.6963946470e+01 1.3353131568e+02 1.2500000000e+02 0.0000e+00 0.0000e+00
      -15  1    3    3    0    0 -2.3530370737e+01 +4.0378332827e+01 +5.5736146319e+01 7.2758256195e+01 1.7770000000e+00 0.0000e+00 -1.0000e+00
       15  1    3    3    0    0 +6.7846852718e+00 -6.7306189184e+00 +1.3838636478e+01 1.6911498273e+01 1.7770000000e+00 0.0000e+00 -1.0000e+00
       22  1    3    3    0    0 +1.6745685465e+01 -3.3647713909e+01 -2.2610836326e+01 4.3861561216e+01 0.0000000000e+00 0.0000e+00 -1.0000e+00
<mgrwt>
<rscale>  2 0.12500000E+03</rscale>
<asrwt>0</asrwt>
<pdfrwt beam="1">  1       21 0.13271710E-01 0.12500000E+03</pdfrwt>
<pdfrwt beam="2">  1       21 0.63652477E-02 0.12500000E+03</pdfrwt>
<totfact> 0.87464011E+06</totfact>
</mgrwt>
</event>
<event>
 6      0 +1.3698540e+00 1.25000000e+02 7.54677100e-03 1.12640300e-01
       21 -1    0    0  502  501 +0.0000000000e+00 +0.0000000000e+00 +3.4614379721e+01 3.4614379721e+01 0.0000000000e+00 0.0000e+00 -1.0000e+00
       21 -1    0    0  501  502 -0.0000000000e+00 -0.0000000000e+00 -1.1285049831e+02 1.1285049831e+02 0.0000000000e+00 0.0000e+00 -1.0000e+00
       25  2    1    2    0    0 +0.0000000000e+00 +0.0000000000e+00 -7.8236118585e+01 1.4746487803e+02 1.2500000000e+02 0.0000e+00 0.0000e+00
      -15  1    3    3    0    0 -2.3384250252e+01 +2.1746137299e+01 -3.2814987864e+01 4.5822470523e+01 1.7770000000e+00 0.0000e+00 -1.0000e+00
       15  1    3    3    0    0 +3.4169012847e+01 +2.3458543895e+01 -8.6397630701e+00 4.2374850507e+01 1.7770000000e+00 0.0000e+00 -1.0000e+00
       22  1    3    3    0    0 -1.0784762595e+01 -4.5204681194e+01 -3.6781367647e+01 5.9267556994e+01 0.0000000000e+00 0.0000e+00 -1.0000e+00
<mgrwt>
<rscale>  2 0.12500000E+03</rscale>
<asrwt>0</asrwt>
<pdfrwt beam="1">  1       21 0.50903500E-02 0.12500000E+03</pdfrwt>
<pdfrwt beam="2">  1       21 0.16595661E-01 0.12500000E+03</pdfrwt>
<totfact> 0.85053153E+06</totfact>
</mgrwt>
</event>
<event>
 6      0 +1.3698540e+00 1.25000000e+02 7.54677100e-03 1.12640300e-01
       21 -1    0    0  502  501 +0.0000000000e+00 +0.0000000000e+00 +3.0950321940e+02 3.0950321940e+02 0.0000000000e+00 0.0000e+00 1.0000e+00
       21 -1    0    0  501  502 -0.0000000000e+00 -0.0000000000e+00 -1.2621031883e+01 1.2621031883e+01 0.0000000000e+00 0.0000e+00 1.0000e+00
       25  2    1    2    0    0 +0.0000000000e+00 +0.0000000000e+00 +2.9688218752e+02 3.2212425128e+02 1.2500000000e+02 0.0000e+00 0.0000e+00
      -15  1    3    3    0    0 -1.9357233060e+01 -4.1590302184e+00 +1.9248708173e+02 1.9351081202e+02 1.7770000000e+00 0.0000e+00 -1.0000e+00
       15  1    3    3    0    0 -1.4393561086e+00 +3.5747527021e+01 +3.8137817732e+01 5.2322158829e+01 1.7770000000e+00 0.0000e+00 -1.0000e+00
       22  1    3    3    0    0 +2.0796589169e+01 -3.1588496802e+01 +6.6257288092e+01 7.6291280475e+01 0.0000000000e+00 0.0000e+00 -1.0000e+00
<mgrwt>
<rscale>  2 0.12500000E+03</rscale>
<asrwt>0</asrwt>
<pdfrwt beam="1">  1       21 0.45515174E-01 0.12500000E+03</pdfrwt>
<pdfrwt beam="2">  1       21 0.18560343E-02 0.12500000E+03</pdfrwt>
<totfact> 0.61474115E+06</totfact>
</mgrwt>
</event>
<event>
 6      0 +1.3698540e+00 1.25000000e+02 7.54677100e-03 1.12640300e-01
       21 -1    0    0  502  501 +0.0000000000e+00 +0.0000000000e+00 +1.6381509436e+01 1.6381509436e+01 0.0000000000e+00 0.0000e+00 -1.0000e+00
       21 -1    0    0  501  502 -0.0000000000e+00 -0.0000000000e+00 -2.3845482709e+02 2.3845482709e+02 0.0000000000e+00 0.0000e+00 -1.0000e+00
       25  2    1    2    0    0 +0.0000000000e+00 +0.0000000000e+00 -2.2207331765e+02 2.5483633653e+02 1.2500000000e+02 0.0000e+00 0.0000e+00
      -15  1    3    3    0    0 +1.8666510271e+00 +3.5604390873e+01 -7.7529644979e+00 3.6529758047e+01 1.7770000000e+00 0.0000e+00 -1.0000e+00
       15  1    3    3    0    0 -7.0402693897e+00 -2.0085366073e+00 -3.8052029373e+01 3.8790646821e+01 1.7770000000e+00 0.0000e+00 -1.0000e+00
       22  1    3    3    0    0 +5.1736183626e+00 -3.3595854266e+01 -1.7626832375e+02 1.7951593163e+02 0.0000000000e+00 0.0000e+00 -1.0000e+00
<mgrwt>
<rscale>  2 0.12500000E+03</rscale>
<asrwt>0</asrwt>
<pdfrwt beam="1">  1       21 0.24090456E-02 0.12500000E+03</pdfrwt>
<pdfrwt beam="2">  1       21 0.35066885E-01 0.12500000E+03</pdfrwt>
<totfact> 0.69385477E+06</totfact>
</mgrwt>
</event>
<event>
 6      0 +1.3698540e+00 1.25000000e+02 7.54677100e-03 1.12640300e-01
       21 -1    0    0  502  501 +0.0000000000e+00 +0.0000000000e+00 +2.9507691005e+02 2.9507691005e+02 0.0000000000e+00 0.0000e+00 -1.0000e+00
       21 -1    0    0  501  502 -0.0000000000e+00 -0.0000000000e+00 -1.3238074098e+01 1.3238074098e+01 0.0000000000e+00 0.0000e+00 -1.0000e+00
       25  2    1    2    0    0 +0.0000000000e+00 +0.0000000000e+00 +2.8183883596e+02 3.0831498415e+02 1.2500000000e+02 0.0000e+00 0.0000e+00
      -15  1    3    3    0    0 +3.0673509968e+00 -2.1775653755e+01 +9.6190658639e+01 9.8688339114e+01 1.7770000000e+00 0.0000e+00 -1.0000e+00
       15  1    3    3    0    0 +1.5615719989e+01 +4.2599226408e+01 +1.7311584964e+02 1.7897150590e+02 1.7770000000e+00 0.0000e+00 -1.0000e+00
       22  1    3    3    0    0 -1.8683070986e+01 -2.0823572653e+01 +1.2532327720e+01 3.0655139171e+01 0.0000000000e+00 0.0000e+00 -1.0000e+00
<mgrwt>
<rscale>  2 0.12500000E+03</rscale>
<asrwt>0</asrwt>
<pdfrwt beam="1">  1       21 0.43393659E-01 0.12500000E+03</pdfrwt>
<pdfrwt beam="2">  1       21 0.19467758E-02 0.12500000E+03</pdfrwt>
<totfact> 0.63004185E+06</totfact>
</mgrwt>
</event>
<event>
 6      0 +1.3698540e+00 1.25000000e+02 7.54677100e-03 1.12640300e-01
       21 -1    0    0  502  501 +0.0000000000e+00 +0.0000000000e+00 +1.4670005174e+02 1.4670005174e+02 0.0000000000e+00 0.0000e+00 -1.0000e+00
       21 -1    0    0  501  502 -0.0000000000e+00 -0.0000000000e+00 -2.6627461638e+01 2.6627461638e+01 0.0000000000e+00 0.0000e+00 -1.0000e+00
       25  2    1    2    0    0 +0.0000000000e+00 +0.0000000000e+00 +1.2007259010e+02 1.7332751338e+02 1.2500000000e+02 0.0000e+00 0.0000e+00
      -15  1    3    3    0    0 +2.8880577537e+01 +3.0097334980e+01 +5.2254827040e+01 6.6885439445e+01 1.7770000000e+00 0.0000e+00 -1.0000e+00
       15  1    3    3    0    0 +1.4451537160e+01 -3.2080494769e+01 +1.5523073639e+01 3.8498423540e+01 1.7770000000e+00 0.0000e+00 -1.0000e+00
       22  1    3    3    0    0 -4.3332114697e+01 +1.9831597891e+00 +5.2294689417e+01 6.7943650388e+01 0.0000000000e+00 0.0000e+00 -1.0000e+00
<mgrwt>
<rscale>  2 0.12500000E+03</rscale>
<asrwt>0</asrwt>
<pdfrwt beam="1">  1       21 0.21573537E-01 0.12500000E+03</pdfrwt>
<pdfrwt beam="2">  1       21 0.39158033E-02 0.12500000E+03</pdfrwt>
<totfact> 0.80839447E+06</totfact>
</mgrwt>
</event>
<event>
 6      0 +1.3698540e+00 1.25000000e+02 7.54677100e-03 1.12640300e-01
       21 -1    0    0  502  501 +0.0000000000e+00 +0.0000000000e+00 +3.8282783016e+02 3.8282783016e+02 0.0000000000e+00 0.0000e+00 1.0000e+00
       21 -1    0    0  501  502 -0.0000000000e+00 -0.0000000000e+00 -1.0203673015e+01 1.0203673015e+01 0.0000000000e+00 0.0000e+00 1.0000e+00
       25  2    1    2    0    0 +0.0000000000e+00 +0.0000000000e+00 +3.7262415714e+02 3.9303150317e+02 1.2500000000e+02 0.0000e+00 0.0000e+00
      -15  1    3    3    0    0 +9.9218295068e-01 -3.7923609993e+01 +8.9372285324e+01 9.7106888195e+01 1.7770000000e+00 0.0000e+00 -1.0000e+00
       15  1    3    3    0    0 +1.8336714486e+01 +5.2710857668e+01 +2.3885776097e+02 2.4529748739e+02 1.7770000000e+00 0.0000e+00 -1.0000e+00
       22  1    3    3    0    0 -1.9328897437e+01 -1.4787247676e+01 +4.4394110848e+01 5.0627127589e+01 0.0000000000e+00 0.0000e+00 -1.0000e+00
<mgrwt>
<rscale>  2 0.12500000E+03</rscale>
<asrwt>0</asrwt>
<pdfrwt beam="1">  1       21 0.56298201E-01 0.12500000E+03</pdfrwt>
<pdfrwt beam="2">  1       21 0.15005404E-02 0.12500000E+03</pdfrwt>
<totfact> 0.54304545E+06</totfact>
</mgrwt>
</event>
<event>
 6      0 +1.3698540e+00 1.25000000e+02 7.54677100e-03 1.12640300e-01
       21 -1    0    0  502  501 +0.0000000000e+00 +0.0000000000e+00 +1.7125073379e+02 1.7125073379e+02 0.0000000000e+00 0.0000e+00 1.0000e+00
       21 -1    0    0  501  502 -0.0000000000e+00 -0.0000000000e+00 -2.2810121239e+01 2.2810121239e+01 0.0000000000e+00 0.0000e+00 1.0000e+00
       25  2    1    2    0    0 +0.0000000000e+00 +0.0000000000e+00 +1.4844061255e+02 1.9406085503e+02 1.2500000000e+02 0.0000e+00 0.0000e+00
      -15  1    3    3    0    0 -8.7652576664e+00 -1.7082634800e+01 +6.4620609879e+01 6.7436096446e+01 1.7770000000e+00 0.0000e+00 -1.0000e+00
       15  1    3    3    0    0 +2.4167304998e+01 +2.7323444116e+00 +9.8166270683e+01 1.0114988268e+02 1.7770000000e+00 0.0000e+00 -1.0000e+00
       22  1    3    3    0    0 -1.5402047332e+01 +1.4350290389e+01 -1.4346268016e+01 2.5474875902e+01 0.0000000000e+00 0.0000e+00 -1.0000e+00
<mgrwt>
<rscale>  2 0.12500000E+03</rscale>
<asrwt>0</asrwt>
<pdfrwt beam="1">  1       21 0.25183931E-01 0.12500000E+03</pdfrwt>
<pdfrwt beam="2">  1       21 0.33544297E-02 0.12500000E+03</pdfrwt>
<totfact> 0.77693690E+06</totfact>
</mgrwt>
</event>
<event>
 6      0 +1.3698540e+00 1.25000000e+02 7.54677100e-03 1.12640300e-01
       21 -1    0    0  502  501 +0.0000000000e+00 +0.0000000000e+00 +2.3158579021e+02 2.3158579021e+02 0.0000000000e+00 0.0000e+00 -1.0000e+00
       21 -1    0    0  501  502 -0.0000000000e+00 -0.0000000000e+00 -1.6867399319e+01 1.6867399319e+01 0.0000000000e+00 0.0000e+00 -1.0000e+00
       25  2    1    2    0    0 +0.0000000000e+00 +0.0000000000e+00 +2.1471839089e+02 2.4845318952e+02 1.2500000000e+02 0.0000e+00 0.0000e+00
      -15  1    3    3    0    0 +1.1742642219e+01 -4.6115291421e+01 +5.2573329579e+01 7.0933930252e+01 1.7770000000e+00 0.0000e+00 -1.0000e+00
       15  1    3    3    0    0 +5.7507163161e+00 +1.8816427545e+01 +1.3126730601e+02 1.3274559141e+02 1.7770000000e+00 0.0000e+00 -1.0000e+00
       22  1    3    3    0    0 -1.7493358535e+01 +2.7298863876e+01 +3.0877755329e+01 4.4773667885e+01 0.0000000000e+00 0.0000e+00 -1.0000e+00
<mgrwt>
<rscale>  2 0.12500000E+03</rscale>
<asrwt>0</asrwt>
<pdfrwt beam="1">  1       21 0.34056732E-01 0.12500000E+03</pdfrwt>
<pdfrwt beam="2">  1       21 0.24805000E-02 0.12500000E+03</pdfrwt>
<totfact> 0.70202417E+06</totfact>
</mgrwt>
</event>
<event>
 6      0 +1.3698540e+00 1.25000000e+02 7.54677100e-03 1.12640300e-01
       21 -1    0    0  502  501 +0.0000000000e+00 +0.0000000000e+00 +9.0895541768e+00 9.0895541768e+00 0.0000000000e+00 0.0000e+00 1.0000e+00
       21 -1    0    0  501  502 -0.0000000000e+00 -0.0000000000e+00 -4.2975155041e+02 4.2975155041e+02 0.0000000000e+00 0.0000e+00 1.0000e+00
       25  2    1    2    0    0 +0.0000000000e+00 +0.0000000000e+00 -4.2066199623e+02 4.3884110458e+02 1.2500000000e+02 0.0000e+00 0.0000e+00
      -15  1    3    3    0    0 +6.0782333457e+01 +1.2416938849e+01 -2.3506857318e+02 2.4312355759e+02 1.7770000000e+00 0.0000e+00 -1.0000e+00
       15  1    3    3    0    0 -6.0803204832e+01 -1.2373505663e+01 -1.8552061224e+02 1.9563023452e+02 1.7770000000e+00 0.0000e+00 -1.0000e+00
       22  1    3    3    0    0 +2.0871374459e-02 -4.3433185473e-02 -7.2810853649e-02 8.7312520758e-02 0.0000000000e+00 0.0000e+00 -1.0000e+00
<mgrwt>
<rscale>  2 0.12500000E+03</rscale>
<asrwt>0</asrwt>
<pdfrwt beam="1">  1       21 0.13366991E-02 0.12500000E+03</pdfrwt>
<pdfrwt beam="2">  1       21 0.63198758E-01 0.12500000E+03</pdfrwt>
<totfact> 0.50213775E+06</totfact>
</mgrwt>
</event>
<event>
 6      0 +1.3698540e+00 1.25000000e+02 7.54677100e-03 1.12640300e-01
       21 -1    0    0  502  501 +0.0000000000e+00 +0.0000000000e+00 +3.1393265276e+01 3.1393265276e+01 0.0000000000e+00 0.0000e+00 1.0000e+00
       21 -1    0    0  501  502 -0.0000000000e+00 -0.0000000000e+00 -1.2442955410e+02 1.2442955410e+02 0.0000000000e+00 0.0000e+00 1.0000e+00
       25  2    1    2    0    0 +0.0000000000e+00 +0.0000000000e+00 -9.3036288823e+01 1.5582281937e+02 1.2500000000e+02 0.0000e+00 0.0000e+00
      -15  1    3    3    0    0 +3.7102472759e+00 -2.1182270283e+01 -6.7742071615e+01 7.1095713689e+01 1.7770000000e+00 0.0000e+00 -1.0000e+00
       15  1    3    3    0    0 -8.7627743370e+00 -7.2790543951e+00 -4.7117691174e+01 4.8507786978e+01 1.7770000000e+00 0.0000e+00 -1.0000e+00
       22  1    3    3    0    0 +5.0525270611e+00 +2.8461324678e+01 +2.1823473962e+01 3.6219318711e+01 0.0000000000e+00 0.0000e+00 -1.0000e+00
<mgrwt>
<rscale>  2 0.12500000E+03</rscale>
<asrwt>0</asrwt>
<pdfrwt beam="1">  1       21 0.46166567E-02 0.12500000E+03</pdfrwt>
<pdfrwt beam="2">  1       21 0.18298464E-01 0.12500000E+03</pdfrwt>
<totfact> 0.83660338E+06</totfact>
</mgrwt>
</event>
<event>
 6      0 +1.3698540e+00 1.25000000e+02 7.54677100e-03 1.12640300e-01
       21 -1    0    0  502  501 +0.0000000000e+00 +0.0000000000e+00 +8.8590100912e+00 8.8590100912e+00 0.0000000000e+00 0.0000e+00 1.0000e+00
       21 -1    0    0  501  502 -0.0000000000e+00 -0.0000000000e+00 -4.4093526927e+02 4.4093526927e+02 0.0000000000e+00 0.0000e+00 1.0000e+00
       25  2    1    2    0    0 +0.0000000000e+00 +0.0000000000e+00 -4.3207625918e+02 4.4979427936e+02 1.2500000000e+02 0.0000e+00 0.0000e+00
      -15  1    3    3    0    0 -8.9126511234e+00 +3.8834660369e+01 -3.8917947568e+02 3.9121782707e+02 1.7770000000e+00 0.0000e+00 1.0000e+00
       15  1    3    3    0    0 +8.9119689393e+00 -3.8835343288e+01 -4.2887339496e+01 5.8566959087e+01 1.7770000000e+00 0.0000e+00 1.0000e+00
       22  1    3    3    0    0 +6.8218416818e-04 +6.8291953379e-04 -9.4440311630e-03 9.4932333236e-03 0.0000000000e+00 0.0000e+00 -1.0000e+00
<mgrwt>
<rscale>  2 0.12500000E+03</rscale>
<asrwt>0</asrwt>
<pdfrwt beam="1">  1       21 0.13027955E-02 0.12500000E+03</pdfrwt>
<pdfrwt beam="2">  1       21 0.64843429E-01 0.12500000E+03</pdfrwt>
<totfact> 0.49292632E+06</totfact>
</mgrwt>
</event>
<event>
 6      0 +1.3698540e+00 1.25000000e+02 7.54677100e-03 1.12640300e-01
       21 -1    0    0  502  501 +0.0000000000e+00 +0.0000000000e+00 +3.8792804961e+01 3.8792804961e+01 0.0000000000e+00 0.0000e+00 1.0000e+00
       21 -1    0    0  501  502 -0.0000000000e+00 -0.0000000000e+00 -1.0069521923e+02 1.0069521923e+02 0.0000000000e+00 0.0000e+00 1.0000e+00
       25  2    1    2    0    0 +0.0000000000e+00 +0.0000000000e+00 -6.1902414268e+01 1.3948802419e+02 1.2500000000e+02 0.0000e+00 0.0000e+00
      -15  1    3    3    0    0 +1.8096667185e+01 +5.4881830581e+01 -4.4596423685e+00 5.7987505811e+01 1.7770000000e+00 0.0000e+00 1.0000e+00
       15  1    3    3    0    0 -1.8096666606e+01 -5.4881830107e+01 -5.7442771727e+01 8.1500517611e+01 1.7770000000e+00 0.0000e+00 1.0000e+00
       22  1    3    3    0    0 -5.7856113599e-07 -4.7372093504e-07 -1.7223529890e-07 7.6733924086e-07 0.0000000000e+00 0.0000e+00 1.0000e+00
<mgrwt>
<rscale>  2 0.12500000E+03</rscale>
<asrwt>0</asrwt>
<pdfrwt beam="1">  1       21 0.57048243E-02 0.12500000E+03</pdfrwt>
<pdfrwt beam="2">  1       21 0.14808120E-01 0.12500000E+03</pdfrwt>
<totfact> 0.86428778E+06</totfact>
</mgrwt>
</event>
<event>
 6      0 +1.3698540e+00 1.25000000e+02 7.54677100e-03 1.12640300e-01
       21 -1    0    0  502  501 +0.0000000000e+00 +0.0000000000e+00 +4.2041676419e+00 4.2041676419e+00 0.0000000000e+00 0.0000e+00 1.0000e+00
       21 -1    0    0  501  502 -0.0000000000e+00 -0.0000000000e+00 -9.2913754463e+02 9.2913754463e+02 0.0000000000e+00 0.0000e+00 1.0000e+00
       25  2    1    2    0    0 +0.0000000000e+00 +0.0000000000e+00 -9.2493337698e+02 9.3334171227e+02 1.2500000000e+02 0.0000e+00 0.0000e+00
      -15  1    3    3    0    0 +3.2560082781e+01 -6.6214675682e+00 -2.4587774741e+02 2.4811897796e+02 1.7770000000e+00 0.0000e+00 -1.0000e+00
       15  1    3    3    0    0 +2.6599117186e+01 +1.3487148845e+01 -3.0445489594e+02 3.0591723980e+02 1.7770000000e+00 0.0000e+00 -1.0000e+00
       22  1    3    3    0    0 -5.9159199967e+01 -6.8656812771e+00 -3.7460073329e+02 3.7930549416e+02 0.0000000000e+00 0.0000e+00 -1.0000e+00
<mgrwt>
<rscale>  2 0.12500000E+03</rscale>
<asrwt>0</asrwt>
<pdfrwt beam="1">  1       21 0.61825864E-03 0.12500000E+03</pdfrwt>
<pdfrwt beam="2">  1       21 0.13663816E+00 0.12500000E+03</pdfrwt>
<totfact> 0.23285958E+06</totfact>
</mgrwt>
</event>
<event>
 6      0 +1.3698540e+00 1.25000000e+02 7.54677100e-03 1.12640300e-01
       21 -1    0    0  502  501 +0.0000000000e+00 +0.0000000000e+00 +8.0905476829e+02 8.0905476829e+02 0.0000000000e+00 0.0000e+00 1.0000e+00
       21 -1    0    0  501  502 -0.0000000000e+00 -0.0000000000e+00 -4.8281651046e+00 4.8281651046e+00 0.0000000000e+00 0.0000e+00 1.0000e+00
       25  2    1    2    0    0 +0.0000000000e+00 +0.0000000000e+00 +8.0422660319e+02 8.1388293340e+02 1.2500000000e+02 0.0000e+00 0.0000e+00
      -15  1    3    3    0    0 -1.3008365918e+01 -1.2489127883e+01 +3.1804899066e+01 3.6604715991e+01 1.7770000000e+00 0.0000e+00 -1.0000e+00
       15  1    3    3    0    0 +3.7987210933e+01 +4.3395868783e+00 +1.6880756156e+02 1.7309249197e+02 1.7770000000e+00 0.0000e+00 -1.0000e+00
       22  1    3    3    0    0 -2.4978845016e+01 +8.1495410042e+00 +6.0361414254e+02 6.0418572541e+02 0.0000000000e+00 0.0000e+00 -1.0000e+00
<mgrwt>
<rscale>  2 0.12500000E+03</rscale>
<asrwt>0</asrwt>
<pdfrwt beam="1">  1       21 0.11897855E+00 0.12500000E+03</pdfrwt>
<pdfrwt beam="2">  1       21 0.71002484E-03 0.12500000E+03</pdfrwt>
<totfact> 0.27709270E+06</totfact>
</mgrwt>
</event>
<event>
 6      0 +1.3698540e+00 1.25000000e+02 7.54677100e-03 1.12640300e-01
       21 -1    0    0  502  501 +0.0000000000e+00 +0.0000000000e+00 +6.7985263425e+01 6.7985263425e+01 0.0000000000e+00 0.0000e+00 1.0000e+00
       21 -1    0    0  501  502 -0.0000000000e+00 -0.0000000000e+00 -5.7457304763e+01 5.7457304763e+01 0.0000000000e+00 0.0000e+00 1.0000e+00
       25  2    1    2    0    0 +0.0000000000e+00 +0.0000000000e+00 +1.0527958661e+01 1.2544256819e+02 1.2500000000e+02 0.0000e+00 0.0000e+00
      -15  1    3    3    0    0 -2.1881393961e+01 -1.0335424988e+01 -2.1764074782e+01 3.2595231116e+01 1.7770000000e+00 0.0000e+00 -1.0000e+00
       15  1    3    3    0    0 -1.4698364529e+01 -2.9338381545e+01 +1.5475820921e+01 3.6324114768e+01 1.7770000000e+00 0.0000e+00 -1.0000e+00
       22  1    3    3    0    0 +3.6579758490e+01 +3.9673806533e+01 +1.6816212523e+01 5.6523222304e+01 0.0000000000e+00 0.0000e+00 -1.0000e+00
<mgrwt>
<rscale>  2 0.12500000E+03</rscale>
<asrwt>0</asrwt>
<pdfrwt beam="1">  1       21 0.99978329E-02 0.12500000E+03</pdfrwt>
<pdfrwt beam="2">  1       21 0.84496036E-02 0.12500000E+03</pdfrwt>
<totfact> 0.88914201E+06</totfact>
</mgrwt>
</event>
<event>
 6      0 +1.3698540e+00 1.25000000e+02 7.54677100e-03 1.12640300e-01
       21 -1    0    0  502  501 +0.0000000000e+00 +0.0000000000e+00 +1.8060193217e+02 1.8060193217e+02 0.0000000000e+00 0.0000e+00 1.0000e+00
       21 -1    0    0  501  502 -0.0000000000e+00 -0.0000000000e+00 -2.1629059851e+01 2.1629059851e+01 0.0000000000e+00 0.0000e+00 1.0000e+00
       25  2    1    2    0    0 +0.0000000000e+00 +0.0000000000e+00 +1.5897287232e+02 2.0223099202e+02 1.2500000000e+02 0.0000e+00 0.0000e+00
      -15  1    3    3    0    0 +4.4376407235e+01 -8.4022738122e+00 +1.4903551581e+02 1.5573890466e+02 1.7770000000e+00 0.0000e+00 1.0000e+00
       15  1    3    3    0    0 -3.9337851536e+01 +8.8436774579e+00 +8.7348345017e+00 4.1293247113e+01 1.7770000000e+00 0.0000e+00 1.0000e+00
       22  1    3    3    0    0 -5.0385556989e+00 -4.4140364576e-01 +1.2025220109e+00 5.1988402453e+00 0.0000000000e+00 0.0000e+00 -1.0000e+00
<mgrwt>
<rscale>  2 0.12500000E+03</rscale>
<asrwt>0</asrwt>
<pdfrwt beam="1">  1       21 0.26559107E-01 0.12500000E+03</pdfrwt>
<pdfrwt beam="2">  1       21 0.31807442E-02 0.12500000E+03</pdfrwt>
<totfact> 0.76494620E+06</totfact>
</mgrwt>
</event>
<event>
 6      0 +1.3698540e+00 1.25000000e+02 7.54677100e-03 1.12640300e-01
       21 -1    0    0  502  501 +0.0000000000e+00 +0.0000000000e+00 +4.8940548207e+01 4.8940548207e+01 0.0000000000e+00 0.0000e+00 1.0000e+00
       21 -1    0    0  501  502 -0.0000000000e+00 -0.0000000000e+00 -7.9816228937e+01 7.9816228937e+01 0.0000000000e+00 0.0000e+00 1.0000e+00
       25  2    1    2    0    0 +0.0000000000e+00 +0.0000000000e+00 -3.0875680729e+01 1.2875677714e+02 1.2500000000e+02 0.0000e+00 0.0000e+00
      -15  1    3    3    0    0 -4.8147892179e+01 -3.3717708462e+01 +6.3282217051e+00 5.9146491900e+01 1.7770000000e+00 0.0000e+00 -1.0000e+00
       15  1    3    3    0    0 +4.8155778771e+01 +3.3677610773e+01 -3.7194649481e+01 6.9568384885e+01 1.7770000000e+00 0.0000e+00 -1.0000e+00
       22  1    3    3    0    0 -7.8865918762e-03 +4.0097688793e-02 -9.2529540177e-03 4.1900359617e-02 0.0000000000e+00 0.0000e+00 -1.0000e+00
<mgrwt>
<rscale>  2 0.12500000E+03</rscale>
<asrwt>0</asrwt>
<pdfrwt beam="1">  1       21 0.71971394E-02 0.12500000E+03</pdfrwt>
<pdfrwt beam="2">  1       21 0.11737681E-01 0.12500000E+03</pdfrwt>
<totfact> 0.88323027E+06</totfact>
</mgrwt>
</event>
<event>
 6      0 +1.3698540e+00 1.25000000e+02 7.54677100e-03 1.12640300e-01
       21 -1    0    0  502  501 +0.0000000000e+00 +0.0000000000e+00 +9.6365307541e+01 9.6365307541e+01 0.0000000000e+00 0.0000e+00 -1.0000e+00
       21 -1    0    0  501  502 -0.0000000000e+00 -0.0000000000e+00 -4.0535853614e+01 4.0535853614e+01 0.0000000000e+00 0.0000e+00 -1.0000e+00
       25  2    1    2    0    0 +0.0000000000e+00 +0.0000000000e+00 +5.5829453927e+01 1.3690116116e+02 1.2500000000e+02 0.0000e+00 0.0000e+00
      -15  1    3    3    0    0 +1.5110277648e+01 +5.6292310309e+01 +5.1859917204e+01 7.8036872258e+01 1.7770000000e+00 0.0000e+00 -1.0000e+00
       15  1    3    3    0    0 -1.2456543188e+01 -4.4944935111e+01 +3.9444564557e-01 4.6674682396e+01 1.7770000000e+00 0.0000e+00 -1.0000e+00
       22  1    3    3    0    0 -2.6537344598e+00 -1.1347375198e+01 +3.5750910764e+00 1.2189606501e+01 0.0000000000e+00 0.0000e+00 -1.0000e+00
<mgrwt>
<rscale>  2 0.12500000E+03</rscale>
<asrwt>0</asrwt>
<pdfrwt beam="1">  1       21 0.14171369E-01 0.12500000E+03</pdfrwt>
<pdfrwt beam="2">  1       21 0.59611549E-02 0.12500000E+03</pdfrwt>
<totfact> 0.86875119E+06</totfact>
</mgrwt>
</event>
<event>
 6      0 +1.3698540e+00 1.25000000e+02 7.54677100e-03 1.12640300e-01
       21 -1    0    0  502  501 +0.0000000000e+00 +0.0000000000e+00 +1.3013694843e+02 1.3013694843e+02 0.0000000000e+00 0.0000e+00 -1.0000e+00
       21 -1    0    0  501  502 -0.0000000000e+00 -0.0000000000e+00 -3.0016456103e+01 3.0016456103e+01 0.0000000000e+00 0.0000e+00 -1.0000e+00
       25  2    1    2    0    0 +0.0000000000e+00 +0.0000000000e+00 +1.0012049233e+02 1.6015340454e+02 1.2500000000e+02 0.0000e+00 0.0000e+00
      -15  1    3    3    0    0 +1.3963606195e+01 -2.8279709612e+01 -1.4089037103e+01 3.4588769408e+01 1.7770000000e+00 0.0000e+00 -1.0000e+00
       15  1    3    3    0    0 -1.3783034332e-01 +3.5599193083e+01 +6.7944959083e+01 7.6726766771e+01 1.7770000000e+00 0.0000e+00 -1.0000e+00
       22  1    3    3    0    0 -1.3825775851e+01 -7.3194834713e+00 +4.6264570344e+01 4.8837868353e+01 0.0000000000e+00 0.0000e+00 -1.0000e+00
<mgrwt>
<rscale>  2 0.12500000E+03</rscale>
<asrwt>0</asrwt>
<pdfrwt beam="1">  1       21 0.19137786E-01 0.12500000E+03</pdfrwt>
<pdfrwt beam="2">  1       21 0.44141848E-02 0.12500000E+03</pdfrwt>
<totfact> 0.82953688E+06</totfact>
</mgrwt>
</event>
<event>
 6      0 +1.3698540e+00 1.25000000e+02 7.54677100e-03 1.12640300e-01
       21 -1    0    0  502  501 +0.0000000000e+00 +0.0000000000e+00 +4.9620099590e+01 4.9620099590e+01 0.0000000000e+00 0.0000e+00 1.0000e+00
       21 -1    0    0  501  502 -0.0000000000e+00 -0.0000000000e+00 -7.8723139056e+01 7.8723139056e+01 0.0000000000e+00 0.0000e+00 1.0000e+00
       25  2    1    2    0    0 +0.0000000000e+00 +0.0000000000e+00 -2.9103039466e+01 1.2834323865e+02 1.2500000000e+02 0.0000e+00 0.0000e+00
      -15  1    3    3    0    0 -2.9952552129e+00 +1.5495436658e+01 +2.4184916907e+01 2.8933510776e+01 1.7770000000e+00 0.0000e+00 -1.0000e+00
       15  1    3    3    0    0 +1.9925262251e+01 +1.8158997545e+01 +7.3706527837e+00 2.8004455343e+01 1.7770000000e+00 0.0000e+00 -1.0000e+00
       22  1    3    3    0    0 -1.6930007038e+01 -3.3654434203e+01 -6.0658609156e+01 7.1405272526e+01 0.0000000000e+00 0.0000e+00 -1.0000e+00
<mgrwt>
<rscale>  2 0.12500000E+03</rscale>
<asrwt>0</asrwt>
<pdfrwt beam="1">  1       21 0.72970735E-02 0.12500000E+03</pdfrwt>
<pdfrwt beam="2">  1       21 0.11576932E-01 0.12500000E+03</pdfrwt>
<totfact> 0.88396882E+06</totfact>
</mgrwt>
</event>
<event>
 6      0 +1.3698540e+00 1.25000000e+02 7.54677100e-03 1.12640300e-01
       21 -1    0    0  502  501 +0.0000000000e+00 +0.0000000000e+00 +2.9565500088e+02 2.9565500088e+02 0.0000000000e+00 0.0000e+00 -1.0000e+00
       21 -1    0    0  501  502 -0.0000000000e+00 -0.0000000000e+00 -1.3212189844e+01 1.3212189844e+01 0.0000000000e+00 0.0000e+00 -1.0000e+00
       25  2    1    2    0    0 +0.0000000000e+00 +0.0000000000e+00 +2.8244281103e+02 3.0886719072e+02 1.2500000000e+02 0.0000e+00 0.0000e+00
      -15  1    3    3    0    0 +3.2562754983e+01 +2.1147690223e+01 +1.0826052266e+02 1.1502632877e+02 1.7770000000e+00 0.0000e+00 -1.0000e+00
       15  1    3    3    0    0 -4.0572973122e+01 +1.5687745712e+01 +6.4132859959e+01 7.7514211401e+01 1.7770000000e+00 0.0000e+00 -1.0000e+00
       22  1    3    3    0    0 +8.0102181391e+00 -3.6835435935e+01 +1.1004942840e+02 1.1632665054e+02 0.0000000000e+00 0.0000e+00 -1.0000e+00
<mgrwt>
<rscale>  2 0.12500000E+03</rscale>
<asrwt>0</asrwt>
<pdfrwt beam="1">  1       21 0.43478673E-01 0.12500000E+03</pdfrwt>
<pdfrwt beam="2">  1       21 0.19429693E-02 0.12500000E+03</pdfrwt>
<totfact> 0.62942033E+06</totfact>
</mgrwt>
</event>
<event>
 6      0 +1.3698540e+00 1.25000000e+02 7.54677100e-03 1.12640300e-01
       21 -1    0    0  502  501 +0.0000000000e+00 +0.0000000000e+00 +2.0434579637e+01 2.0434579637e+01 0.0000000000e+00 0.0000e+00 -1.0000e+00
       21 -1    0    0  501  502 -0.0000000000e+00 -0.0000000000e+00 -1.9115881361e+02 1.9115881361e+02 0.0000000000e+00 0.0000e+00 -1.0000e+00
       25  2    1    2    0    0 +0.0000000000e+00 +0.0000000000e+00 -1.7072423397e+02 2.1159339325e+02 1.2500000000e+02 0.0000e+00 0.0000e+00
      -15  1    3    3    0    0 +2.9490756205e+00 +7.5276946718e+00 +7.2982964949e+00 1.1035673736e+01 1.7770000000e+00 0.0000e+00 -1.0000e+00
       15  1    3    3    0    0 -3.4783928359e+01 +1.9886875608e+01 -4.1483300462e+01 5.7701225635e+01 1.7770000000e+00 0.0000e+00 -1.0000e+00
       22  1    3    3    0    0 +3.1834852739e+01 -2.7414570280e+01 -1.3653922999e+02 1.4285649386e+02 0.0000000000e+00 0.0000e+00 -1.0000e+00
<mgrwt>
<rscale>  2 0.12500000E+03</rscale>
<asrwt>0</asrwt>
<pdfrwt beam="1">  1       21 0.30050854E-02 0.12500000E+03</pdfrwt>
<pdfrwt beam="2">  1       21 0.28111589E-01 0.12500000E+03</pdfrwt>
<totfact> 0.75159963E+06</totfact>
</mgrwt>
</event>
<event>
 6      0 +1.3698540e+00 1.25000000e+02 7.54677100e-03 1.12640300e-01
       21 -1    0    0  502  501 +0.0000000000e+00 +0.0000000000e+00 +4.6290820681e+01 4.6290820681e+01 0.0000000000e+00 0.0000e+00 1.0000e+00
       21 -1    0    0  501  502 -0.0000000000e+00 -0.0000000000e+00 -8.4384980488e+01 8.4384980488e+01 0.0000000000e+00 0.0000e+00 1.0000e+00
       25  2    1    2    0    0 +0.0000000000e+00 +0.0000000000e+00 -3.8094159807e+01 1.3067580117e+02 1.2500000000e+02 0.0000e+00 0.0000e+00
      -15  1    3    3    0    0 +2.4145739735e+01 -2.7391250832e+01 -6.1918400610e+01 7.1905100186e+01 1.7770000000e+00 0.0000e+00 -1.0000e+00
       15  1    3    3    0    0 -9.0301362697e+00 -5.6998526539e+00 +1.9275658322e+01 2.2107474167e+01 1.7770000000e+00 0.0000e+00 -1.0000e+00
       22  1    3    3    0    0 -1.5115603465e+01 +3.3091103486e+01 +4.5485824815e+00 3.6663226817e+01 0.0000000000e+00 0.0000e+00 -1.0000e+00
<mgrwt>
<rscale>  2 0.12500000E+03</rscale>
<asrwt>0</asrwt>
<pdfrwt beam="1">  1       21 0.68074737E-02 0.12500000E+03</pdfrwt>
<pdfrwt beam="2">  1       21 0.12409556E-01 0.12500000E+03</pdfrwt>
<totfact> 0.87974815E+06</totfact>
</mgrwt>
</event>
<event>
 6      0 +1.3698540e+00 1.25000000e+02 7.54677100e-03 1.12640300e-01
       21 -1    0    0  502  501 +0.0000000000e+00 +0.0000000000e+00 +3.8606977079e+02 3.8606977079e+02 0.0000000000e+00 0.0000e+00 1.0000e+00
       21 -1    0    0  501  502 -0.0000000000e+00 -0.0000000000e+00 -1.0117989792e+01 1.0117989792e+01 0.0000000000e+00 0.0000e+00 1.0000e+00
       25  2    1    2    0    0 +0.0000000000e+00 +0.0000000000e+00 +3.7595178100e+02 3.9618776059e+02 1.2500000000e+02 0.0000e+00 0.0000e+00
      -15  1    3    3    0    0 -5.3409565475e+01 -1.0209692375e+01 +9.0478149592e+01 1.0557591006e+02 1.7770000000e+00 0.0000e+00 1.0000e+00
       15  1    3    3    0    0 +5.3122091940e+01 +1.0142555052e+01 +2.8385240665e+02 2.8896396759e+02 1.7770000000e+00 0.0000e+00 1.0000e+00
       22  1    3    3    0    0 +2.8747353496e-01 +6.7137323636e-02 +1.6212247076e+00 1.6478828860e+00 0.0000000000e+00 0.0000e+00 1.0000e+00
<mgrwt>
<rscale>  2 0.12500000E+03</rscale>
<asrwt>0</asrwt>
<pdfrwt beam="1">  1       21 0.56774957E-01 0.12500000E+03</pdfrwt>
<pdfrwt beam="2">  1       21 0.14879399E-02 0.12500000E+03</pdfrwt>
<totfact> 0.54009532E+06</totfact>
</mgrwt>
</event>
<event>
 6      0 +1.3698540e+00 1.25000000e+02 7.54677100e-03 1.12640300e-01
       21 -1    0    0  502  501 +0.0000000000e+00 +0.0000000000e+00 +1.2288995124e+01 1.2288995124e+01 0.0000000000e+00 0.0000e+00 -1.0000e+00
       21 -1    0    0  501  502 -0.0000000000e+00 -0.0000000000e+00 -3.1786569696e+02 3.1786569696e+02 0.0000000000e+00 0.0000e+00 -1.0000e+00
       25  2    1    2    0    0 +0.0000000000e+00 +0.0000000000e+00 -3.0557670184e+02 3.3015469208e+02 1.2500000000e+02 0.0000e+00 0.0000e+00
      -15  1    3    3    0    0 -3.0876875281e+01 -3.2202901224e+01 -3.7275832818e+01 5.8164024239e+01 1.7770000000e+00 0.0000e+00 -1.0000e+00
       15  1    3    3    0    0 +3.0876849690e+01 +3.2202869287e+01 -2.6830075486e+02 2.7199054657e+02 1.7770000000e+00 0.0000e+00 -1.0000e+00
       22  1    3    3    0    0 +2.5591467240e-05 +3.1937065663e-05 -1.1421390212e-04 1.2132483174e-04 0.0000000000e+00 0.0000e+00 1.0000e+00
<mgrwt>
<rscale>  2 0.12500000E+03</rscale>
<asrwt>0</asrwt>
<pdfrwt beam="1">  1       21 0.18072050E-02 0.12500000E+03</pdfrwt>
<pdfrwt beam="2">  1       21 0.46744960E-01 0.12500000E+03</pdfrwt>
<totfact> 0.60606697E+06</totfact>
</mgrwt>
</event>
<event>
 6      0 +1.3698540e+00 1.25000000e+02 7.54677100e-03 1.12640300e-01
       21 -1    0    0  502  501 +0.0000000000e+00 +0.0000000000e+00 +5.0649145369e+01 5.0649145369e+01 0.0000000000e+00 0.0000e+00 -1.0000e+00
       21 -1    0    0  501  502 -0.0000000000e+00 -0.0000000000e+00 -7.7123710016e+01 7.7123710016e+01 0.0000000000e+00 0.0000e+00 -1.0000e+00
       25  2    1    2    0    0 +0.0000000000e+00 +0.0000000000e+00 -2.6474564647e+01 1.2777285538e+02 1.2500000000e+02 0.0000e+00 0.0000e+00
      -15  1    3    3    0    0 +6.4088102784e-01 +1.8141501092e+01 -4.2523710472e+01 4.6270384390e+01 1.7770000000e+00 0.0000e+00 -1.0000e+00
       15  1    3    3    0    0 -2.1197833158e+01 +2.1147107187e+01 -8.0209255575e+00 3.1049013652e+01 1.7770000000e+00 0.0000e+00 -1.0000e+00
       22  1    3    3    0    0 +2.0556952130e+01 -3.9288608280e+01 +2.4070071382e+01 5.0453457342e+01 0.0000000000e+00 0.0000e+00 -1.0000e+00
<mgrwt>
<rscale>  2 0.12500000E+03</rscale>
<asrwt>0</asrwt>
<pdfrwt beam="1">  1       21 0.74484038E-02 0.12500000E+03</pdfrwt>
<pdfrwt beam="2">  1       21 0.11341722E-01 0.12500000E+03</pdfrwt>
<totfact> 0.88497623E+06</totfact>
</mgrwt>
</event>
<event>
 6      0 +1.3698540e+00 1.25000000e+02 7.54677100e-03 1.12640300e-01
       21 -1    0    0  502  501 +0.0000000000e+00 +0.0000000000e+00 +2.5080422233e+02 2.5080422233e+02 0.0000000000e+00 0.0000e+00 1.0000e+00
       21 -1    0    0  501  502 -0.0000000000e+00 -0.0000000000e+00 -1.5574897279e+01 1.5574897279e+01 0.0000000000e+00 0.0000e+00 1.0000e+00
       25  2    1    2    0    0 +0.0000000000e+00 +0.0000000000e+00 +2.3522932505e+02 2.6637911961e+02 1.2500000000e+02 0.0000e+00 0.0000e+00
      -15  1    3    3    0    0 -1.0735635252e+01 -4.1689183165e+01 +2.2770065941e+01 4.8732694254e+01 1.7770000000e+00 0.0000e+00 1.0000e+00
       15  1    3    3    0    0 +1.0424150811e+01 +4.2629707848e+01 +2.1208835825e+02 2.1658851388e+02 1.7770000000e+00 0.0000e+00 1.0000e+00
       22  1    3    3    0    0 +3.1148444091e-01 -9.4052468334e-01 +3.7090085670e-01 1.0579114719e+00 0.0000000000e+00 0.0000e+00 -1.0000e+00
<mgrwt>
<rscale>  2 0.12500000E+03</rscale>
<asrwt>0</asrwt>
<pdfrwt beam="1">  1       21 0.36882971E-01 0.12500000E+03</pdfrwt>
<pdfrwt beam="2">  1       21 0.22904262E-02 0.12500000E+03</pdfrwt>
<totfact> 0.67942455E+06</totfact>
</mgrwt>
</event>
<event>
 6      0 +1.3698540e+00 1.25000000e+02 7.54677100e-03 1.12640300e-01
       21 -1    0    0  502  501 +0.0000000000e+00 +0.0000000000e+00 +3.1923276381e+02 3.1923276381e+02 0.0000000000e+00 0.0000e+00 1.0000e+00
       21 -1    0    0  501  502 -0.0000000000e+00 -0.0000000000e+00 -1.2236369329e+01 1.2236369329e+01 0.0000000000e+00 0.0000e+00 1.0000e+00
       25  2    1    2    0    0 +0.0000000000e+00 +0.0000000000e+00 +3.0699639449e+02 3.3146913314e+02 1.2500000000e+02 0.0000e+00 0.0000e+00
      -15  1    3    3    0    0 +2.2234565696e+01 +4.1793182716e+01 +1.3318604161e+02 1.4136026826e+02 1.7770000000e+00 0.0000e+00 -1.0000e+00
       15  1    3    3    0    0 -3.3425587447e+00 +9.9046132292e+00 +3.5645110666e+00 1.1186488739e+01 1.7770000000e+00 0.0000e+00 -1.0000e+00
       22  1    3    3    0    0 -1.8892006951e+01 -5.1697795946e+01 +1.7024584186e+02 1.7892237620e+02 0.0000000000e+00 0.0000e+00 -1.0000e+00
<mgrwt>
<rscale>  2 0.12500000E+03</rscale>
<asrwt>0</asrwt>
<pdfrwt beam="1">  1       21 0.46945989E-01 0.12500000E+03</pdfrwt>
<pdfrwt beam="2">  1       21 0.17994663E-02 0.12500000E+03</pdfrwt>
<totfact> 0.60466232E+06</totfact>
</mgrwt>
</event>
<event>
 6      0 +1.3698540e+00 1.25000000e+02 7.54677100e-03 1.12640300e-01
       21 -1    0    0  502  501 +0.0000000000e+00 +0.0000000000e+00 +5.9691561244e+02 5.9691561244e+02 0.0000000000e+00 0.0000e+00 -1.0000e+00
       21 -1    0    0  501  502 -0.0000000000e+00 -0.0000000000e+00 -6.5440573484e+00 6.5440573484e+00 0.0000000000e+00 0.0000e+00 -1.0000e+00
       25  2    1    2    0    0 +0.0000000000e+00 +0.0000000000e+00 +5.9037155510e+02 6.0345966979e+02 1.2500000000e+02 0.0000e+00 0.0000e+00
      -15  1    3    3    0    0 +1.4198907580e+01 -2.1164183480e+01 +3.7074766351e+01 4.5024745061e+01 1.7770000000e+00 0.0000e+00 -1.0000e+00
       15  1    3    3    0    0 +5.9340989819e+00 -6.5660514951e+00 +7.9977499047e+00 1.2060194671e+01 1.7770000000e+00 0.0000e+00 -1.0000e+00
       22  1    3    3    0    0 -2.0133006561e+01 +2.7730234975e+01 +5.4529903900e+02 5.4637473022e+02 0.0000000000e+00 0.0000e+00 -1.0000e+00
<mgrwt>
<rscale>  2 0.12500000E+03</rscale>
<asrwt>0</asrwt>
<pdfrwt beam="1">  1       21 0.87781670E-01 0.12500000E+03</pdfrwt>
<pdfrwt beam="2">  1       21 0.96236179E-03 0.12500000E+03</pdfrwt>
<totfact> 0.38304590E+06</totfact>
</mgrwt>
</event>
<event>
 6      0 +1.3698540e+00 1.25000000e+02 7.54677100e-03 1.12640300e-01
       21 -1    0    0  502  501 +0.0000000000e+00 +0.0000000000e+00 +1.0486218078e+02 1.0486218078e+02 0.0000000000e+00 0.0000e+00 1.0000e+00
       21 -1    0    0  501  502 -0.0000000000e+00 -0.0000000000e+00 -3.7251275637e+01 3.7251275637e+01 0.0000000000e+00 0.0000e+00 1.0000e+00
       25  2    1    2    0    0 +0.0000000000e+00 +0.0000000000e+00 +6.7610905138e+01 1.4211345641e+02 1.2500000000e+02 0.0000e+00 0.0000e+00
      -15  1    3    3    0    0 +2.5599489827e+01 -1.3908723625e+01 +6.4273404720e+01 7.0590472130e+01 1.7770000000e+00 0.0000e+00 -1.0000e+00
       15  1    3    3    0    0 -2.7919413198e+01 +7.1533705126e+00 +3.1345365686e+01 4.2618705071e+01 1.7770000000e+00 0.0000e+00 -1.0000e+00
       22  1    3    3    0    0 +2.3199233711e+00 +6.7553531123e+00 -2.8007865265e+01 2.8904279213e+01 0.0000000000e+00 0.0000e+00 -1.0000e+00
<mgrwt>
<rscale>  2 0.12500000E+03</rscale>
<asrwt>0</asrwt>
<pdfrwt beam="1">  1       21 0.15420909E-01 0.12500000E+03</pdfrwt>
<pdfrwt beam="2">  1       21 0.54781288E-02 0.12500000E+03</pdfrwt>
<totfact> 0.85974167E+06</totfact>
</mgrwt>
</event>
<event>
 6      0 +1.3698540e+00 1.25000000e+02 7.54677100e-03 1.12640300e-01
       21 -1    0    0  502  501 +0.0000000000e+00 +0.0000000000e+00 +3.5388060858e+01 3.5388060858e+01 0.0000000000e+00 0.0000e+00 1.0000e+00
       21 -1    0    0  501  502 -0.0000000000e+00 -0.0000000000e+00 -1.1038327349e+02 1.1038327349e+02 0.0000000000e+00 0.0000e+00 1.0000e+00
       25  2    1    2    0    0 +0.0000000000e+00 +0.0000000000e+00 -7.4995212631e+01 1.4577133435e+02 1.2500000000e+02 0.0000e+00 0.0000e+00
      -15  1    3    3    0    0 -3.8113675023e+01 -4.3186549785e+01 -6.5646428233e+01 8.7351826396e+01 1.7770000000e+00 0.0000e+00 -1.0000e+00
       15  1    3    3    0    0 +3.8124389937e+01 +4.3199721697e+01 -9.3301569444e+00 5.8394302978e+01 1.7770000000e+00 0.0000e+00 -1.0000e+00
       22  1    3    3    0    0 -1.0714914181e-02 -1.3171912337e-02 -1.8627451533e-02 2.5204971953e-02 0.0000000000e+00 0.0000e+00 1.0000e+00
<mgrwt>
<rscale>  2 0.12500000E+03</rscale>
<asrwt>0</asrwt>
<pdfrwt beam="1">  1       21 0.52041266E-02 0.12500000E+03</pdfrwt>
<pdfrwt beam="2">  1       21 0.16232834E-01 0.12500000E+03</pdfrwt>
<totfact> 0.85341887E+06</totfact>
</mgrwt>
</event>
<event>
 6      0 +1.3698540e+00 1.25000000e+02 7.54677100e-03 1.12640300e-01
       21 -1    0    0  502  501 +0.0000000000e+00 +0.0000000000e+00 +1.2262398248e+02 1.2262398248e+02 0.0000000000e+00 0.0000e+00 1.0000e+00
       21 -1    0    0  501  502 -0.0000000000e+00 -0.0000000000e+00 -3.1855514075e+01 3.1855514075e+01 0.0000000000e+00 0.0000e+00 1.0000e+00
       25  2    1    2    0    0 +0.0000000000e+00 +0.0000000000e+00 +9.0768468409e+01 1.5447949656e+02 1.2500000000e+02 0.0000e+00 0.0000e+00
      -15  1    3    3    0    0 +4.3345477422e+01 -1.6030227617e+01 +9.7296756143e+01 1.0772936041e+02 1.7770000000e+00 0.0000e+00 -1.0000e+00
       15  1    3    3    0    0 -4.3167778922e+01 +1.5888458184e+01 -6.6164951081e+00 4.6506300402e+01 1.7770000000e+00 0.0000e+00 -1.0000e+00
       22  1    3    3    0    0 -1.7769849964e-01 +1.4176943294e-01 +8.8207373951e-02 2.4383574330e-01 0.0000000000e+00 0.0000e+00 -1.0000e+00
<mgrwt>
<rscale>  2 0.12500000E+03</rscale>
<asrwt>0</asrwt>
<pdfrwt beam="1">  1       21 0.18032938E-01 0.12500000E+03</pdfrwt>
<pdfrwt beam="2">  1       21 0.46846345E-02 0.12500000E+03</pdfrwt>
<totfact> 0.83881085E+06</totfact>
</mgrwt>
</event>
<event>
 6      0 +1.3698540e+00 1.25000000e+02 7.54677100e-03 1.12640300e-01
       21 -1    0    0  502  501 +0.0000000000e+00 +0.0000000000e+00 +3.4594557697e+00 3.4594557697e+00 0.0000000000e+00 0.0000e+00 -1.0000e+00
       21 -1    0    0  501  502 -0.0000000000e+00 -0.0000000000e+00 -1.1291515949e+03 1.1291515949e+03 0.0000000000e+00 0.0000e+00 -1.0000e+00
       25  2    1    2    0    0 +0.0000000000e+00 +0.0000000000e+00 -1.1256921392e+03 1.1326110507e+03 1.2500000000e+02 0.0000e+00 0.0000e+00
      -15  1    3    3    0    0 -2.4166985959e+01 -9.4589927044e+00 -1.2770350376e+02 1.3032596961e+02 1.7770000000e+00 0.0000e+00 -1.0000e+00
       15  1    3    3    0    0 -2.8795285902e+00 -3.7673637541e+01 -4.6362898546e+02 4.6516941917e+02 1.7770000000e+00 0.0000e+00 -1.0000e+00
       22  1    3    3    0    0 +2.7046514549e+01 +4.7132630245e+01 -5.3435965319e+02 5.3711566514e+02 0.0000000000e+00 0.0000e+00 -1.0000e+00
<mgrwt>
<rscale>  2 0.12500000E+03</rscale>
<asrwt>0</asrwt>
<pdfrwt beam="1">  1       21 0.50874279E-03 0.12500000E+03</pdfrwt>
<pdfrwt beam="2">  1       21 0.16605194E+00 0.12500000E+03</pdfrwt>
<totfact> 0.17590780E+06</totfact>
</mgrwt>
</event>
<event>
 6      0 +1.3698540e+00 1.25000000e+02 7.54677100e-03 1.12640300e-01
       21 -1    0    0  502  501 +0.0000000000e+00 +0.0000000000e+00 +2.8613262136e+01 2.8613262136e+01 0.0000000000e+00 0.0000e+00 -1.0000e+00
       21 -1    0    0  501  502 -0.0000000000e+00 -0.0000000000e+00 -1.3651886253e+02 1.3651886253e+02 0.0000000000e+00 0.0000e+00 -1.0000e+00
       25  2    1    2    0    0 +0.0000000000e+00 +0.0000000000e+00 -1.0790560039e+02 1.6513212466e+02 1.2500000000e+02 0.0000e+00 0.0000e+00
      -15  1    3    3    0    0 +1.9467138269e+01 +2.2606534876e+01 -1.3337308999e+01 3.2727151294e+01 1.7770000000e+00 0.0000e+00 -1.0000e+00
       15  1    3    3    0    0 +1.4931513577e+01 -1.8246044606e+01 -9.4826911744e+01 9.7730083195e+01 1.7770000000e+00 0.0000e+00 -1.0000e+00
       22  1    3    3    0    0 -3.4398651846e+01 -4.3604902697e+00 +2.5862034977e-01 3.4674890175e+01 0.0000000000e+00 0.0000e+00 -1.0000e+00
<mgrwt>
<rscale>  2 0.12500000E+03</rscale>
<asrwt>0</asrwt>
<pdfrwt beam="1">  1       21 0.42078327E-02 0.12500000E+03</pdfrwt>
<pdfrwt beam="2">  1       21 0.20076303E-01 0.12500000E+03</pdfrwt>
<totfact> 0.82144817E+06</totfact>
</mgrwt>
</event>
<event>
 6      0 +1.3698540e+00 1.25000000e+02 7.54677100e-03 1.12640300e-01
       21 -1    0    0  502  501 +0.0000000000e+00 +0.0000000000e+00 +1.9775152249e+01 1.9775152249e+01 0.0000000000e+00 0.0000e+00 -1.0000e+00
       21 -1    0    0  501  502 -0.0000000000e+00 -0.0000000000e+00 -1.9753324530e+02 1.9753324530e+02 0.0000000000e+00 0.0000e+00 -1.0000e+00
       25  2    1    2    0    0 +0.0000000000e+00 +0.0000000000e+00 -1.7775809305e+02 2.1730839755e+02 1.2500000000e+02 0.0000e+00 0.0000e+00
      -15  1    3    3    0    0 +1.0698420366e+01 +6.0091185238e+01 -1.1205242608e+02 1.2760999436e+02 1.7770000000e+00 0.0000e+00 -1.0000e+00
       15  1    3    3    0    0 -1.0698373025e+01 -6.0091082182e+01 -6.5705375920e+01 8.9698090821e+01 1.7770000000e+00 0.0000e+00 -1.0000e+00
       22  1    3    3    0    0 -4.7340436734e-05 -1.0305637723e-04 -2.9104437434e-04 3.1235966716e-04 0.0000000000e+00 0.0000e+00 1.0000e+00
<mgrwt>
<rscale>  2 0.12500000E+03</rscale>
<asrwt>0</asrwt>
<pdfrwt beam="1">  1       21 0.29081105E-02 0.12500000E+03</pdfrwt>
<pdfrwt beam="2">  1       21 0.29049008E-01 0.12500000E+03</pdfrwt>
<totfact> 0.74363829E+06</totfact>
</mgrwt>
</event>
<event>
 6      0 +1.3698540e+00 1.25000000e+02 7.54677100e-03 1.12640300e-01
       21 -1    0    0  502  501 +0.0000000000e+00 +0.0000000000e+00 +8.0362955244e+00 8.0362955244e+00 0.0000000000e+00 0.0000e+00 1.0000e+00
       21 -1    0    0  501  502 -0.0000000000e+00 -0.0000000000e+00 -4.8607595230e+02 4.8607595230e+02 0.0000000000e+00 0.0000e+00 1.0000e+00
       25  2    1    2    0    0 +0.0000000000e+00 +0.0000000000e+00 -4.7803965678e+02 4.9411224783e+02 1.2500000000e+02 0.0000e+00 0.0000e+00
      -15  1    3    3    0    0 -1.3286603148e+01 -3.9220042622e+00 -6.3912546489e+01 6.5420847353e+01 1.7770000000e+00 0.0000e+00 -1.0000e+00
       15  1    3    3    0    0 +3.1636763738e+01 +5.0397283682e+01 -1.9217285392e+02 2.0118234151e+02 1.7770000000e+00 0.0000e+00 -1.0000e+00
       22  1    3    3    0    0 -1.8350160590e+01 -4.6475279420e+01 -2.2195425635e+02 2.2750905895e+02 0.0000000000e+00 0.0000e+00 -1.0000e+00
<mgrwt>
<rscale>  2 0.12500000E+03</rscale>
<asrwt>0</asrwt>
<pdfrwt beam="1">  1       21 0.11818081E-02 0.12500000E+03</pdfrwt>
<pdfrwt beam="2">  1       21 0.71481759E-01 0.12500000E+03</pdfrwt>
<totfact> 0.45767104E+06</totfact>
</mgrwt>
</event>
<event>
 6      0 +1.3698540e+00 1.25000000e+02 7.54677100e-03 1.12640300e-01
       21 -1    0    0  502  501 +0.0000000000e+00 +0.0000000000e+00 +1.3951850668e+01 1.3951850668e+01 0.0000000000e+00 0.0000e+00 1.0000e+00
       21 -1    0    0  501  502 -0.0000000000e+00 -0.0000000000e+00 -2.7998077767e+02 2.7998077767e+02 0.0000000000e+00 0.0000e+00 1.0000e+00
       25  2    1    2    0    0 +0.0000000000e+00 +0.0000000000e+00 -2.6602892700e+02 2.9393262834e+02 1.2500000000e+02 0.0000e+00 0.0000e+00
      -15  1    3    3    0    0 +1.7712390791e+01 +2.6999272715e+01 -1.0873858544e+02 1.1344570158e+02 1.7770000000e+00 0.0000e+00 -1.0000e+00
       15  1    3    3    0    0 -1.3369366773e+01 -6.0255885186e+00 +5.8930548232e+00 1.5903883458e+01 1.7770000000e+00 0.0000e+00 -1.0000e+00
       22  1    3    3    0    0 -4.3430240184e+00 -2.0973684196e+01 -1.6318339636e+02 1.6458304328e+02 0.0000000000e+00 0.0000e+00 -1.0000e+00
<mgrwt>
<rscale>  2 0.12500000E+03</rscale>
<asrwt>0</asrwt>
<pdfrwt beam="1">  1       21 0.20517428E-02 0.12500000E+03</pdfrwt>
<pdfrwt beam="2">  1       21 0.41173642E-01 0.12500000E+03</pdfrwt>
<totfact> 0.64651223E+06</totfact>
</mgrwt>
</event>
<event>
 6      0 +1.3698540e+00 1.25000000e+02 7.54677100e-03 1.12640300e-01
       21 -1    0    0  502  501 +0.0000000000e+00 +0.0000000000e+00 +3.4749372248e+01 3.4749372248e+01 0.0000000000e+00 0.0000e+00 -1.0000e+00
       21 -1    0    0  501  502 -0.0000000000e+00 -0.0000000000e+00 -1.1241210264e+02 1.1241210264e+02 0.0000000000e+00 0.0000e+00 -1.0000e+00
       25  2    1    2    0    0 +0.0000000000e+00 +0.0000000000e+00 -7.7662730396e+01 1.4716147489e+02 1.2500000000e+02 0.0000e+00 0.0000e+00
      -15  1    3    3    0    0 +5.9617573863e+00 -8.6975565472e+00 -1.1132711003e+02 1.1183949749e+02 1.7770000000e+00 0.0000e+00 -1.0000e+00
       15  1    3    3    0    0 -5.9617573926e+00 +8.6975580754e+00 +3.3664407409e+01 3.5321949590e+01 1.7770000000e+00 0.0000e+00 -1.0000e+00
       22  1    3    3    0    0 +6.2543365817e-09 -1.5281979027e-06 -2.7772617522e-05 2.7814631257e-05 0.0000000000e+00 0.0000e+00 -1.0000e+00
<mgrwt>
<rscale>  2 0.12500000E+03</rscale>
<asrwt>0</asrwt>
<pdfrwt beam="1">  1       21 0.51102019E-02 0.12500000E+03</pdfrwt>
<pdfrwt beam="2">  1       21 0.16531191E-01 0.12500000E+03</pdfrwt>
<totfact> 0.85104695E+06</totfact>
</mgrwt>
</event>
<event>
 6      0 +1.3698540e+00 1.25000000e+02 7.54677100e-03 1.12640300e-01
       21 -1    0    0  502  501 +0.0000000000e+00 +0.0000000000e+00 +8.6631823161e+01 8.6631823161e+01 0.0000000000e+00 0.0000e+00 1.0000e+00
       21 -1    0    0  501  502 -0.0000000000e+00 -0.0000000000e+00 -4.5090243487e+01 4.5090243487e+01 0.0000000000e+00 0.0000e+00 1.0000e+00
       25  2    1    2    0    0 +0.0000000000e+00 +0.0000000000e+00 +4.1541579674e+01 1.3172206665e+02 1.2500000000e+02 0.0000e+00 0.0000e+00
      -15  1    3    3    0    0 -3.4795528194e+01 -2.8059477586e+00 +1.4531175864e+01 3.7853862763e+01 1.7770000000e+00 0.0000e+00 -1.0000e+00
       15  1    3    3    0    0 -1.8660277419e+01 +2.5625547431e+01 +1.0620261503e+01 3.3478684531e+01 1.7770000000e+00 0.0000e+00 -1.0000e+00
       22  1    3    3    0    0 +5.3455805613e+01 -2.2819599672e+01 +1.6390142307e+01 6.0389519354e+01 0.0000000000e+00 0.0000e+00 -1.0000e+00
<mgrwt>
<rscale>  2 0.12500000E+03</rscale>
<asrwt>0</asrwt>
<pdfrwt beam="1">  1       21 0.12739974E-01 0.12500000E+03</pdfrwt>
<pdfrwt beam="2">  1       21 0.66309181E-02 0.12500000E+03</pdfrwt>
<totfact> 0.87786023E+06</totfact>
</mgrwt>
</event>
<event>
 6      0 +1.3698540e+00 1.25000000e+02 7.54677100e-03 1.12640300e-01
       21 -1    0    0  502  501 +0.0000000000e+00 +0.0000000000e+00 +6.6160378073e+01 6.6160378073e+01 0.0000000000e+00 0.0000e+00 -1.0000e+00
       21 -1    0    0  501  502 -0.0000000000e+00 -0.0000000000e+00 -5.9042135396e+01 5.9042135396e+01 0.0000000000e+00 0.0000e+00 -1.0000e+00
       25  2    1    2    0    0 +0.0000000000e+00 +0.0000000000e+00 +7.1182426772e+00 1.2520251347e+02 1.2500000000e+02 0.0000e+00 0.0000e+00
      -15  1    3    3    0    0 +1.1884245660e+01 +1.2177135652e+01 -1.1462336874e+01 2.0592737147e+01 1.7770000000e+00 0.0000e+00 -1.0000e+00
       15  1    3    3    0    0 -2.6121470041e+00 +4.4907170459e+01 +1.0373823074e+01 4.6197956716e+01 1.7770000000e+00 0.0000e+00 -1.0000e+00
       22  1    3    3    0    0 -9.2720986557e+00 -5.7084306111e+01 +8.2067564771e+00 5.8411819605e+01 0.0000000000e+00 0.0000e+00 -1.0000e+00
<mgrwt>
<rscale>  2 0.12500000E+03</rscale>
<asrwt>0</asrwt>
<pdfrwt beam="1">  1       21 0.97294674E-02 0.12500000E+03</pdfrwt>
<pdfrwt beam="2">  1       21 0.86826669E-02 0.12500000E+03</pdfrwt>
<totfact> 0.88960292E+06</totfact>
</mgrwt>
</event>
<event>
 6      0 +1.3698540e+00 1.25000000e+02 7.54677100e-03 1.12640300e-01
       21 -1    0    0  502  501 +0.0000000000e+00 +0.0000000000e+00 +6.7538246814e+01 6.7538246814e+01 0.0000000000e+00 0.0000e+00 1.0000e+00
       21 -1    0    0  501  502 -0.0000000000e+00 -0.0000000000e+00 -5.7837598461e+01 5.7837598461e+01 0.0000000000e+00 0.0000e+00 1.0000e+00
       25  2    1    2    0    0 +0.0000000000e+00 +0.0000000000e+00 +9.7006483533e+00 1.2537584528e+02 1.2500000000e+02 0.0000e+00 0.0000e+00
      -15  1    3    3    0    0 +2.2010468420e+01 -4.1435952501e+01 +1.8852553130e+01 5.0596199149e+01 1.7770000000e+00 0.0000e+00 -1.0000e+00
       15  1    3    3    0    0 -1.5992265642e+01 -1.2013961635e+01 -5.7335930198e+00 2.0883477977e+01 1.7770000000e+00 0.0000e+00 -1.0000e+00
       22  1    3    3    0    0 -6.0182027788e+00 +5.3449914136e+01 -3.4183117579e+00 5.3896168149e+01 0.0000000000e+00 0.0000e+00 -1.0000e+00
<mgrwt>
<rscale>  2 0.12500000E+03</rscale>
<asrwt>0</asrwt>
<pdfrwt beam="1">  1       21 0.99320951E-02 0.12500000E+03</pdfrwt>
<pdfrwt beam="2">  1       21 0.85055292E-02 0.12500000E+03</pdfrwt>
<totfact> 0.88926805E+06</totfact>
</mgrwt>
</event>
<event>
 6      0 +1.3698540e+00 1.25000000e+02 7.54677100e-03 1.12640300e-01
       21 -1    0    0  502  501 +0.0000000000e+00 +0.0000000000e+00 +2.0539049037e+01 2.0539049037e+01 0.0000000000e+00 0.0000e+00 1.0000e+00
       21 -1    0    0  501  502 -0.0000000000e+00 -0.0000000000e+00 -1.9018650732e+02 1.9018650732e+02 0.0000000000e+00 0.0000e+00 1.0000e+00
       25  2    1    2    0    0 +0.0000000000e+00 +0.0000000000e+00 -1.6964745828e+02 2.1072555635e+02 1.2500000000e+02 0.0000e+00 0.0000e+00
      -15  1    3    3    0    0 -2.5213264936e+01 +4.5724539764e+01 -1.0296619905e+02 1.1546271321e+02 1.7770000000e+00 0.0000e+00 -1.0000e+00
       15  1    3    3    0    0 +5.5300045011e+00 +7.4756408458e+00 -1.8728614366e+01 2.0985349197e+01 1.7770000000e+00 0.0000e+00 -1.0000e+00
       22  1    3    3    0    0 +1.9683260435e+01 -5.3200180610e+01 -4.7952644871e+01 7.4277493956e+01 0.0000000000e+00 0.0000e+00 -1.0000e+00
<mgrwt>
<rscale>  2 0.12500000E+03</rscale>
<asrwt>0</asrwt>
<pdfrwt beam="1">  1       21 0.30204484E-02 0.12500000E+03</pdfrwt>
<pdfrwt beam="2">  1       21 0.27968604E-01 0.12500000E+03</pdfrwt>
<totfact> 0.75282021E+06</totfact>
</mgrwt>
</event>
<event>
 6      0 +1.3698540e+00 1.25000000e+02 7.54677100e-03 1.12640300e-01
       21 -1    0    0  502  501 +0.0000000000e+00 +0.0000000000e+00 +3.2816923522e+01 3.2816923522e+01 0.0000000000e+00 0.0000e+00 1.0000e+00
       21 -1    0    0  501  502 -0.0000000000e+00 -0.0000000000e+00 -1.1903157215e+02 1.1903157215e+02 0.0000000000e+00 0.0000e+00 1.0000e+00
       25  2    1    2    0    0 +0.0000000000e+00 +0.0000000000e+00 -8.6214648628e+01 1.5184849567e+02 1.2500000000e+02 0.0000e+00 0.0000e+00
      -15  1    3    3    0    0 +5.0731359096e-01 +4.9064415737e+00 -5.1203827596e+00 7.3284776455e+00 1.7770000000e+00 0.0000e+00 -1.0000e+00
       15  1    3    3    0    0 -5.1315700408e+01 +1.6416511750e+01 -1.0421165708e+01 5.4905021538e+01 1.7770000000e+00 0.0000e+00 -1.0000e+00
       22  1    3    3    0    0 +5.0808386817e+01 -2.1322953324e+01 -7.0673100162e+01 8.9614996490e+01 0.0000000000e+00 0.0000e+00 -1.0000e+00
<mgrwt>
<rscale>  2 0.12500000E+03</rscale>
<asrwt>0</asrwt>
<pdfrwt beam="1">  1       21 0.48260182E-02 0.12500000E+03</pdfrwt>
<pdfrwt beam="2">  1       21 0.17504643E-01 0.12500000E+03</pdfrwt>
<totfact> 0.84316632E+06</totfact>
</mgrwt>
</event>
<event>
 6      0 +1.3698540e+00 1.25000000e+02 7.54677100e-03 1.12640300e-01
       21 -1    0    0  502  501 +0.0000000000e+00 +0.0000000000e+00 +1.6476701961e+02 1.6476701961e+02 0.0000000000e+00 0.0000e+00 -1.0000e+00
       21 -1    0    0  501  502 -0.0000000000e+00 -0.0000000000e+00 -2.3707717777e+01 2.3707717777e+01 0.0000000000e+00 0.0000e+00 -1.0000e+00
       25  2    1    2    0    0 +0.0000000000e+00 +0.0000000000e+00 +1.4105930184e+02 1.8847473739e+02 1.2500000000e+02 0.0000e+00 0.0000e+00
      -15  1    3    3    0    0 -6.0987661662e+01 +1.3161313340e+01 +6.7393752840e+01 9.1857447682e+01 1.7770000000e+00 0.0000e+00 -1.0000e+00
       15  1    3    3    0    0 +6.1000058684e+01 -1.3232030207e+01 +7.3567021758e+01 9.6495379175e+01 1.7770000000e+00 0.0000e+00 -1.0000e+00
       22  1    3    3    0    0 -1.2397021286e-02 +7.0716866292e-02 +9.8527248879e-02 1.2191054133e-01 0.0000000000e+00 0.0000e+00 -1.0000e+00
<mgrwt>
<rscale>  2 0.12500000E+03</rscale>
<asrwt>0</asrwt>
<pdfrwt beam="1">  1       21 0.24230444E-01 0.12500000E+03</pdfrwt>
<pdfrwt beam="2">  1       21 0.34864292E-02 0.12500000E+03</pdfrwt>
<totfact> 0.78525511E+06</totfact>
</mgrwt>
</event>
<event>
 6      0 +1.3698540e+00 1.25000000e+02 7.54677100e-03 1.12640300e-01
       21 -1    0    0  502  501 +0.0000000000e+00 +0.0000000000e+00 +4.0988118051e+02 4.0988118051e+02 0.0000000000e+00 0.0000e+00 1.0000e+00
       21 -1    0    0  501  502 -0.0000000000e+00 -0.0000000000e+00 -9.5302009113e+00 9.5302009113e+00 0.0000000000e+00 0.0000e+00 1.0000e+00
       25  2    1    2    0    0 +0.0000000000e+00 +0.0000000000e+00 +4.0035097960e+02 4.1941138142e+02 1.2500000000e+02 0.0000e+00 0.0000e+00
      -15  1    3    3    0    0 -4.7937530573e+01 +2.5922436171e+01 +1.4352863468e+02 1.5353698654e+02 1.7770000000e+00 0.0000e+00 -1.0000e+00
       15  1    3    3    0    0 -7.4243795658e-01 +7.8926661048e+00 +1.7080802800e+01 1.8914463928e+01 1.7770000000e+00 0.0000e+00 -1.0000e+00
       22  1    3    3    0    0 +4.8679968529e+01 -3.3815102276e+01 +2.3974154214e+02 2.4695993097e+02 0.0000000000e+00 0.0000e+00 -1.0000e+00
<mgrwt>
<rscale>  2 0.12500000E+03</rscale>
<asrwt>0</asrwt>
<pdfrwt beam="1">  1       21 0.60276633E-01 0.12500000E+03</pdfrwt>
<pdfrwt beam="2">  1       21 0.14015004E-02 0.12500000E+03</pdfrwt>
<totfact> 0.51900077E+06</totfact>
</mgrwt>
</event>
<event>
 6      0 +1.3698540e+00 1.25000000e+02 7.54677100e-03 1.12640300e-01
       21 -1    0    0  502  501 +0.0000000000e+00 +0.0000000000e+00 +2.3325823294e+01 2.3325823294e+01 0.0000000000e+00 0.0000e+00 1.0000e+00
       21 -1    0    0  501  502 -0.0000000000e+00 -0.0000000000e+00 -1.6746461425e+02 1.6746461425e+02 0.0000000000e+00 0.0000e+00 1.0000e+00
       25  2    1    2    0    0 +0.0000000000e+00 +0.0000000000e+00 -1.4413879096e+02 1.9079043754e+02 1.2500000000e+02 0.0000e+00 0.0000e+00
      -15  1    3    3    0    0 +9.4660052078e+00 -4.5716843137e+01 -1.3511310998e+02 1.4296274067e+02 1.7770000000e+00 0.0000e+00 1.0000e+00
       15  1    3    3    0    0 -9.8622842983e+00 +4.5042562989e+01 -9.1307847332e+00 4.7038559620e+01 1.7770000000e+00 0.0000e+00 1.0000e+00
       22  1    3    3    0    0 +3.9627909055e-01 +6.7428014777e-01 +1.0510374151e-01 7.8913727058e-01 0.0000000000e+00 0.0000e+00 -1.0000e+00
<mgrwt>
<rscale>  2 0.12500000E+03</rscale>
<asrwt>0</asrwt>
<pdfrwt beam="1">  1       21 0.34302683E-02 0.12500000E+03</pdfrwt>
<pdfrwt beam="2">  1       21 0.24627148E-01 0.12500000E+03</pdfrwt>
<totfact> 0.78179735E+06</totfact>
</mgrwt>
</event>
<event>
 6      0 +1.3698540e+00 1.25000000e+02 7.54677100e-03 1.12640300e-01
       21 -1    0    0  502  501 +0.0000000000e+00 +0.0000000000e+00 +1.9431746556e+01 1.9431746556e+01 0.0000000000e+00 0.0000e+00 -1.0000e+00
       21 -1    0    0  501  502 -0.0000000000e+00 -0.0000000000e+00 -2.0102413279e+02 2.0102413279e+02 0.0000000000e+00 0.0000e+00 -1.0000e+00
       25  2    1    2    0    0 +0.0000000000e+00 +0.0000000000e+00 -1.8159238623e+02 2.2045587934e+02 1.2500000000e+02 0.0000e+00 0.0000e+00
      -15  1    3    3    0    0 -1.6882527247e+01 +2.1194503774e+01 -9.4663799693e+01 9.8481568924e+01 1.7770000000e+00 0.0000e+00 -1.0000e+00
       15  1    3    3    0    0 -1.3351077852e+00 -5.0133192774e+01 -4.1532565652e+01 6.5140089570e+01 1.7770000000e+00 0.0000e+00 -1.0000e+00
       22  1    3    3    0    0 +1.8217635033e+01 +2.8938689001e+01 -4.5396020890e+01 5.6834220852e+01 0.0000000000e+00 0.0000e+00 -1.0000e+00
<mgrwt>
<rscale>  2 0.12500000E+03</rscale>
<asrwt>0</asrwt>
<pdfrwt beam="1">  1       21 0.28576099E-02 0.12500000E+03</pdfrwt>
<pdfrwt beam="2">  1       21 0.29562371E-01 0.12500000E+03</pdfrwt>
<totfact> 0.73930715E+06</totfact>
</mgrwt>
</event>
<event>
 6      0 +1.3698540e+00 1.25000000e+02 7.54677100e-03 1.12640300e-01
       21 -1    0    0  502  501 +0.0000000000e+00 +0.0000000000e+00 +8.7853428646e+01 8.7853428646e+01 0.0000000000e+00 0.0000e+00 -1.0000e+00
       21 -1    0    0  501  502 -0.0000000000e+00 -0.0000000000e+00 -4.4463261824e+01 4.4463261824e+01 0.0000000000e+00 0.0000e+00 -1.0000e+00
       25  2    1    2    0    0 +0.0000000000e+00 +0.0000000000e+00 +4.3390166823e+01 1.3231669047e+02 1.2500000000e+02 0.0000e+00 0.0000e+00
      -15  1    3    3    0    0 -5.2146878626e-01 -5.1316956550e+00 -9.8431885255e+00 1.1253991262e+01 1.7770000000e+00 0.0000e+00 -1.0000e+00
       15  1    3    3    0    0 +5.3042479343e+01 -6.4965744271e+00 +3.6456596087e+01 6.4714381874e+01 1.7770000000e+00 0.0000e+00 -1.0000e+00
       22  1    3    3    0    0 -5.2521010557e+01 +1.1628270082e+01 +1.6776759261e+01 5.6348317333e+01 0.0000000000e+00 0.0000e+00 -1.0000e+00
<mgrwt>
<rscale>  2 0.12500000E+03</rscale>
<asrwt>0</asrwt>
<pdfrwt beam="1">  1       21 0.12919622E-01 0.12500000E+03</pdfrwt>
<pdfrwt beam="2">  1       21 0.65387149E-02 0.12500000E+03</pdfrwt>
<totfact> 0.87679625E+06</totfact>
</mgrwt>
</event>
<event>
 6      0 +1.3698540e+00 1.25000000e+02 7.54677100e-03 1.12640300e-01
       21 -1    0    0  502  501 +0.0000000000e+00 +0.0000000000e+00 +1.9712359815e+03 1.9712359815e+03 0.0000000000e+00 0.0000e+00 -1.0000e+00
       21 -1    0    0  501  502 -0.0000000000e+00 -0.0000000000e+00 -1.9816247454e+00 1.9816247454e+00 0.0000000000e+00 0.0000e+00 -1.0000e+00
       25  2    1    2    0    0 +0.0000000000e+00 +0.0000000000e+00 +1.9692543568e+03 1.9732176063e+03 1.2500000000e+02 0.0000e+00 0.0000e+00
      -15  1    3    3    0    0 +5.5099559578e+01 +1.9963292218e+01 +1.0982948206e+03 1.0998587023e+03 1.7770000000e+00 0.0000e+00 -1.0000e+00
       15  1    3    3    0    0 -1.0166971905e+01 +6.8268177692e+00 +1.7135298559e+02 1.7179923213e+02 1.7770000000e+00 0.0000e+00 -1.0000e+00
       22  1    3    3    0    0 -4.4932587673e+01 -2.6790109987e+01 +6.9960654836e+02 7.0155966955e+02 0.0000000000e+00 0.0000e+00 -1.0000e+00
<mgrwt>
<rscale>  2 0.12500000E+03</rscale>
<asrwt>0</asrwt>
<pdfrwt beam="1">  1       21 0.28988628E+00 0.12500000E+03</pdfrwt>
<pdfrwt beam="2">  1       21 0.29141678E-03 0.12500000E+03</pdfrwt>
<totfact> 0.55905403E+05</totfact>
</mgrwt>
</event>
<event>
 6      0 +1.3698540e+00 1.25000000e+02 7.54677100e-03 1.12640300e-01
       21 -1    0    0  502  501 +0.0000000000e+00 +0.0000000000e+00 +1.3228200421e+02 1.3228200421e+02 0.0000000000e+00 0.0000e+00 1.0000e+00
       21 -1    0    0  501  502 -0.0000000000e+00 -0.0000000000e+00 -2.9529715877e+01 2.9529715877e+01 0.0000000000e+00 0.0000e+00 1.0000e+00
       25  2    1    2    0    0 +0.0000000000e+00 +0.0000000000e+00 +1.0275228834e+02 1.6181172009e+02 1.2500000000e+02 0.0000e+00 0.0000e+00
      -15  1    3    3    0    0 +5.2075329215e+01 +2.2164487458e+01 +1.8419277978e+01 5.9544369569e+01 1.7770000000e+00 0.0000e+00 -1.0000e+00
       15  1    3    3    0    0 -5.2426389542e+01 -2.2740825620e+01 +8.3409045739e+01 1.0112318285e+02 1.7770000000e+00 0.0000e+00 -1.0000e+00
       22  1    3    3    0    0 +3.5106032794e-01 +5.7633816223e-01 +9.2396462485e-01 1.1441676709e+00 0.0000000000e+00 0.0000e+00 -1.0000e+00
<mgrwt>
<rscale>  2 0.12500000E+03</rscale>
<asrwt>0</asrwt>
<pdfrwt beam="1">  1       21 0.19453236E-01 0.12500000E+03</pdfrwt>
<pdfrwt beam="2">  1       21 0.43426053E-02 0.12500000E+03</pdfrwt>
<totfact> 0.82683899E+06</totfact>
</mgrwt>
</event>
<event>
 6      0 +1.3698540e+00 1.25000000e+02 7.54677100e-03 1.12640300e-01
       21 -1    0    0  502  501 +0.0000000000e+00 +0.0000000000e+00 +1.6107019312e+03 1.6107019312e+03 0.0000000000e+00 0.0000e+00 1.0000e+00
       21 -1    0    0  501  502 -0.0000000000e+00 -0.0000000000e+00 -2.4251848988e+00 2.4251848988e+00 0.0000000000e+00 0.0000e+00 1.0000e+00
       25  2    1    2    0    0 +0.0000000000e+00 +0.0000000000e+00 +1.6082767463e+03 1.6131271161e+03 1.2500000000e+02 0.0000e+00 0.0000e+00
      -15  1    3    3    0    0 -5.3286218620e+01 -3.2087731866e+01 +7.5395600218e+02 7.5651956656e+02 1.7770000000e+00 0.0000e+00 1.0000e+00
       15  1    3    3    0    0 +5.3423119639e+01 +3.2173317290e+01 +8.5230226235e+02 8.5458262104e+02 1.7770000000e+00 0.0000e+00 1.0000e+00
       22  1    3    3    0    0 -1.3690101957e-01 -8.5585423352e-02 +2.0184813697e+00 2.0249280959e+00 0.0000000000e+00 0.0000e+00 1.0000e+00
<mgrwt>
<rscale>  2 0.12500000E+03</rscale>
<asrwt>0</asrwt>
<pdfrwt beam="1">  1       21 0.23686719E+00 0.12500000E+03</pdfrwt>
<pdfrwt beam="2">  1       21 0.35664596E-03 0.12500000E+03</pdfrwt>
<totfact> 0.90903848E+05</totfact>
</mgrwt>
</event>
<event>
 6      0 +1.3698540e+00 1.25000000e+02 7.54677100e-03 1.12640300e-01
       21 -1    0    0  502  501 +0.0000000000e+00 +0.0000000000e+00 +1.4441907332e+01 1.4441907332e+01 0.0000000000e+00 0.0000e+00 -1.0000e+00
       21 -1    0    0  501  502 -0.0000000000e+00 -0.0000000000e+00 -2.7048020114e+02 2.7048020114e+02 0.0000000000e+00 0.0000e+00 -1.0000e+00
       25  2    1    2    0    0 +0.0000000000e+00 +0.0000000000e+00 -2.5603829381e+02 2.8492210847e+02 1.2500000000e+02 0.0000e+00 0.0000e+00
      -15  1    3    3    0    0 -8.2954131135e+00 +1.4303258512e+01 -1.4101089751e+01 2.1803567230e+01 1.7770000000e+00 0.0000e+00 -1.0000e+00
       15  1    3    3    0    0 +1.4342242996e+01 +4.2623828550e+01 -8.7177048471e+01 9.8109562243e+01 1.7770000000e+00 0.0000e+00 -1.0000e+00
       22  1    3    3    0    0 -6.0468298823e+00 -5.6927087062e+01 -1.5476015561e+02 1.6500897902e+02 0.0000000000e+00 0.0000e+00 -1.0000e+00
<mgrwt>
<rscale>  2 0.12500000E+03</rscale>
<asrwt>0</asrwt>
<pdfrwt beam="1">  1       21 0.21238101E-02 0.12500000E+03</pdfrwt>
<pdfrwt beam="2">  1       21 0.39776496E-01 0.12500000E+03</pdfrwt>
<totfact> 0.65706961E+06</totfact>
</mgrwt>
</event>
<event>
 6      0 +1.3698540e+00 1.25000000e+02 7.54677100e-03 1.12640300e-01
       21 -1    0    0  502  501 +0.0000000000e+00 +0.0000000000e+00 +7.9208606182e+02 7.9208606182e+02 0.0000000000e+00 0.0000e+00 -1.0000e+00
       21 -1    0    0  501  502 -0.0000000000e+00 -0.0000000000e+00 -4.9315979517e+00 4.9315979517e+00 0.0000000000e+00 0.0000e+00 -1.0000e+00
       25  2    1    2    0    0 +0.0000000000e+00 +0.0000000000e+00 +7.8715446386e+02 7.9701765977e+02 1.2500000000e+02 0.0000e+00 0.0000e+00
      -15  1    3    3    0    0 -2.4820233258e+01 +4.1073803237e+01 +1.3878704043e+02 1.4686082395e+02 1.7770000000e+00 0.0000e+00 -1.0000e+00
       15  1    3    3    0    0 +1.8198262884e+01 -3.1668681470e+01 +5.1290058742e+02 5.1420254032e+02 1.7770000000e+00 0.0000e+00 -1.0000e+00
       22  1    3    3    0    0 +6.6219703744e+00 -9.4051217669e+00 +1.3546683575e+02 1.3595429524e+02 0.0000000000e+00 0.0000e+00 -1.0000e+00
<mgrwt>
<rscale>  2 0.12500000E+03</rscale>
<asrwt>0</asrwt>
<pdfrwt beam="1">  1       21 0.11648316E+00 0.12500000E+03</pdfrwt>
<pdfrwt beam="2">  1       21 0.72523554E-03 0.12500000E+03</pdfrwt>
<totfact> 0.28410459E+06</totfact>
</mgrwt>
</event>
<event>
 6      0 +1.3698540e+00 1.25000000e+02 7.54677100e-03 1.12640300e-01
       21 -1    0    0  502  501 +0.0000000000e+00 +0.0000000000e+00 +2.1408148480e+01 2.1408148480e+01 0.0000000000e+00 0.0000e+00 -1.0000e+00
       21 -1    0    0  501  502 -0.0000000000e+00 -0.0000000000e+00 -1.8246556930e+02 1.8246556930e+02 0.0000000000e+00 0.0000e+00 -1.0000e+00
       25  2    1    2    0    0 +0.0000000000e+00 +0.0000000000e+00 -1.6105742082e+02 2.0387371778e+02 1.2500000000e+02 0.0000e+00 0.0000e+00
      -15  1    3    3    0    0 +7.1343939825e+00 +4.5001565329e+01 -7.4143492341e+01 8.7042837988e+01 1.7770000000e+00 0.0000e+00 -1.0000e+00
       15  1    3    3    0    0 +8.4186529714e+00 -1.3201527458e+01 +6.4152003556e+00 1.7013717103e+01 1.7770000000e+00 0.0000e+00 -1.0000e+00
       22  1    3    3    0    0 -1.5553046954e+01 -3.1800037871e+01 -9.3329128833e+01 9.9817162687e+01 0.0000000000e+00 0.0000e+00 -1.0000e+00
<mgrwt>
<rscale>  2 0.12500000E+03</rscale>
<asrwt>0</asrwt>
<pdfrwt beam="1">  1       21 0.31482571E-02 0.12500000E+03</pdfrwt>
<pdfrwt beam="2">  1       21 0.26833172E-01 0.12500000E+03</pdfrwt>
<totfact> 0.76257467E+06</totfact>
</mgrwt>
</event>
<event>
 6      0 +1.3698540e+00 1.25000000e+02 7.54677100e-03 1.12640300e-01
       21 -1    0    0  502  501 +0.0000000000e+00 +0.0000000000e+00 +4.4069539446e+01 4.4069539446e+01 0.0000000000e+00 0.0000e+00 -1.0000e+00
       21 -1    0    0  501  502 -0.0000000000e+00 -0.0000000000e+00 -8.8638321369e+01 8.8638321369e+01 0.0000000000e+00 0.0000e+00 -1.0000e+00
       25  2    1    2    0    0 +0.0000000000e+00 +0.0000000000e+00 -4.4568781923e+01 1.3270786081e+02 1.2500000000e+02 0.0000e+00 0.0000e+00
      -15  1    3    3    0    0 -2.8675503930e+01 +1.9209188807e+01 -4.9949323950e+01 6.0740185647e+01 1.7770000000e+00 0.0000e+00 -1.0000e+00
       15  1    3    3    0    0 -1.0071932613e+01 -1.3954230048e+01 -1.9150038148e+01 2.5807868042e+01 1.7770000000e+00 0.0000e+00 -1.0000e+00
       22  1    3    3    0    0 +3.8747436543e+01 -5.2549587595e+00 +2.4530580175e+01 4.6159807127e+01 0.0000000000e+00 0.0000e+00 -1.0000e+00
<mgrwt>
<rscale>  2 0.12500000E+03</rscale>
<asrwt>0</asrwt>
<pdfrwt beam="1">  1       21 0.64808147E-02 0.12500000E+03</pdfrwt>
<pdfrwt beam="2">  1       21 0.13035047E-01 0.12500000E+03</pdfrwt>
<totfact> 0.87609948E+06</totfact>
</mgrwt>
</event>
<event>
 6      0 +1.3698540e+00 1.25000000e+02 7.54677100e-03 1.12640300e-01
       21 -1    0    0  502  501 +0.0000000000e+00 +0.0000000000e+00 +1.5915213488e+01 1.5915213488e+01 0.0000000000e+00 0.0000e+00 1.0000e+00
       21 -1    0    0  501  502 -0.0000000000e+00 -0.0000000000e+00 -2.4544125675e+02 2.4544125675e+02 0.0000000000e+00 0.0000e+00 1.0000e+00
       25  2    1    2    0    0 +0.0000000000e+00 +0.0000000000e+00 -2.2952604326e+02 2.6135647024e+02 1.2500000000e+02 0.0000e+00 0.0000e+00
      -15  1    3    3    0    0 -2.8132641853e+01 -1.6068197841e+01 -1.7128325000e+01 3.6690186233e+01 1.7770000000e+00 0.0000e+00 -1.0000e+00
       15  1    3    3    0    0 +1.9676462398e+01 +2.1782437108e+01 -2.1243458065e+02 2.1446036119e+02 1.7770000000e+00 0.0000e+00 -1.0000e+00
       22  1    3    3    0    0 +8.4561794545e+00 -5.7142392661e+00 +3.6862400055e-02 1.0205922800e+01 0.0000000000e+00 0.0000e+00 1.0000e+00
<mgrwt>
<rscale>  2 0.12500000E+03</rscale>
<asrwt>0</asrwt>
<pdfrwt beam="1">  1       21 0.23404728E-02 0.12500000E+03</pdfrwt>
<pdfrwt beam="2">  1       21 0.36094300E-01 0.12500000E+03</pdfrwt>
<totfact> 0.68565141E+06</totfact>
</mgrwt>
</event>
<event>
 6      0 +1.3698540e+00 1.25000000e+02 7.54677100e-03 1.12640300e-01
       21 -1    0    0  502  501 +0.0000000000e+00 +0.0000000000e+00 +5.5574541150e+01 5.5574541150e+01 0.0000000000e+00 0.0000e+00 -1.0000e+00
       21 -1    0    0  501  502 -0.0000000000e+00 -0.0000000000e+00 -7.0288479566e+01 7.0288479566e+01 0.0000000000e+00 0.0000e+00 -1.0000e+00
       25  2    1    2    0    0 +0.0000000000e+00 +0.0000000000e+00 -1.4713938415e+01 1.2586302072e+02 1.2500000000e+02 0.0000e+00 0.0000e+00
      -15  1    3    3    0    0 -1.0418340723e+00 +4.8521086284e+01 +3.2255543450e+01 5.8300592147e+01 1.7770000000e+00 0.0000e+00 -1.0000e+00
       15  1    3    3    0    0 +1.0416978597e+00 -4.8521015884e+01 -4.6969442317e+01 6.7562270221e+01 1.7770000000e+00 0.0000e+00 -1.0000e+00
       22  1    3    3    0    0 +1.3621258810e-04 -7.0399653784e-05 -3.9548456449e-05 1.5834791068e-04 0.0000000000e+00 0.0000e+00 -1.0000e+00
<mgrwt>
<rscale>  2 0.12500000E+03</rscale>
<asrwt>0</asrwt>
<pdfrwt beam="1">  1       21 0.81727266E-02 0.12500000E+03</pdfrwt>
<pdfrwt beam="2">  1       21 0.10336541E-01 0.12500000E+03</pdfrwt>
<totfact> 0.88836612E+06</totfact>
</mgrwt>
</event>
<event>
 6      0 +1.3698540e+00 1.25000000e+02 7.54677100e-03 1.12640300e-01
       21 -1    0    0  502  501 +0.0000000000e+00 +0.0000000000e+00 +2.5814279214e+01 2.5814279214e+01 0.0000000000e+00 0.0000e+00 1.0000e+00
       21 -1    0    0  501  502 -0.0000000000e+00 -0.0000000000e+00 -1.5132128880e+02 1.5132128880e+02 0.0000000000e+00 0.0000e+00 1.0000e+00
       25  2    1    2    0    0 +0.0000000000e+00 +0.0000000000e+00 -1.2550700958e+02 1.7713556801e+02 1.2500000000e+02 0.0000e+00 0.0000e+00
      -15  1    3    3    0    0 +4.1114462684e+01 -1.3673273808e+01 +1.0226257169e+00 4.3376963365e+01 1.7770000000e+00 0.0000e+00 1.0000e+00
       15  1    3    3    0    0 -4.1108549231e+01 +1.3669908900e+01 -1.2641732935e+02 1.3364609279e+02 1.7770000000e+00 0.0000e+00 1.0000e+00
       22  1    3    3    0    0 -5.9134530173e-03 +3.3649079651e-03 -1.1230594404e-01 1.1251185093e-01 0.0000000000e+00 0.0000e+00 1.0000e+00
<mgrwt>
<rscale>  2 0.12500000E+03</rscale>
<asrwt>0</asrwt>
<pdfrwt beam="1">  1       21 0.37962177E-02 0.12500000E+03</pdfrwt>
<pdfrwt beam="2">  1       21 0.22253130E-01 0.12500000E+03</pdfrwt>
<totfact> 0.80246911E+06</totfact>
</mgrwt>
</event>
<event>
 6      0 +1.3698540e+00 1.25000000e+02 7.54677100e-03 1.12640300e-01
       21 -1    0    0  502  501 +0.0000000000e+00 +0.0000000000e+00 +2.8411570990e+01 2.8411570990e+01 0.0000000000e+00 0.0000e+00 1.0000e+00
       21 -1    0    0  501  502 -0.0000000000e+00 -0.0000000000e+00 -1.3748799746e+02 1.3748799746e+02 0.0000000000e+00 0.0000e+00 1.0000e+00
       25  2    1    2    0    0 +0.0000000000e+00 +0.0000000000e+00 -1.0907642647e+02 1.6589956845e+02 1.2500000000e+02 0.0000e+00 0.0000e+00
      -15  1    3    3    0    0 +2.5965072503e+01 +1.6730132265e+00 -1.8849108622e+01 3.2178107281e+01 1.7770000000e+00 0.0000e+00 -1.0000e+00
       15  1    3    3    0    0 +2.7119495464e+01 -4.8307399655e+00 +1.5538212572e+00 2.7647335719e+01 1.7770000000e+00 0.0000e+00 -1.0000e+00
       22  1    3    3    0    0 -5.3084567967e+01 +3.1577267390e+00 -9.1781139104e+01 1.0607412545e+02 0.0000000000e+00 0.0000e+00 -1.0000e+00
<mgrwt>
<rscale>  2 0.12500000E+03</rscale>
<asrwt>0</asrwt>
<pdfrwt beam="1">  1       21 0.41781722E-02 0.12500000E+03</pdfrwt>
<pdfrwt beam="2">  1       21 0.20218823E-01 0.12500000E+03</pdfrwt>
<totfact> 0.82020668E+06</totfact>
</mgrwt>
</event>
<event>
 6      0 +1.3698540e+00 1.25000000e+02 7.54677100e-03 1.12640300e-01
       21 -1    0    0  502  501 +0.0000000000e+00 +0.0000000000e+00 +3.2323276515e+01 3.2323276515e+01 0.0000000000e+00 0.0000e+00 -1.0000e+00
       21 -1    0    0  501  502 -0.0000000000e+00 -0.0000000000e+00 -1.2084944415e+02 1.2084944415e+02 0.0000000000e+00 0.0000e+00 -1.0000e+00
       25  2    1    2    0    0 +0.0000000000e+00 +0.0000000000e+00 -8.8526167638e+01 1.5317272067e+02 1.2500000000e+02 0.0000e+00 0.0000e+00
      -15  1    3    3    0    0 -1.4032036342e+01 -4.7911724796e+01 -8.6218678292e+00 5.0694435106e+01 1.7770000000e+00 0.0000e+00 -1.0000e+00
       15  1    3    3    0    0 +2.0801904602e+01 +3.3352371665e+01 -2.8392467140e+01 4.8522055294e+01 1.7770000000e+00 0.0000e+00 -1.0000e+00
       22  1    3    3    0    0 -6.7698682597e+00 +1.4559353131e+01 -5.1511832666e+01 5.3956230266e+01 0.0000000000e+00 0.0000e+00 -1.0000e+00
<mgrwt>
<rscale>  2 0.12500000E+03</rscale>
<asrwt>0</asrwt>
<pdfrwt beam="1">  1       21 0.47534231E-02 0.12500000E+03</pdfrwt>
<pdfrwt beam="2">  1       21 0.17771977E-01 0.12500000E+03</pdfrwt>
<totfact> 0.84096862E+06</totfact>
</mgrwt>
</event>
<event>
 6      0 +1.3698540e+00 1.25000000e+02 7.54677100e-03 1.12640300e-01
       21 -1    0    0  502  501 +0.0000000000e+00 +0.0000000000e+00 +2.6679705977e+01 2.6679705977e+01 0.0000000000e+00 0.0000e+00 1.0000e+00
       21 -1    0    0  501  502 -0.0000000000e+00 -0.0000000000e+00 -1.4641278293e+02 1.4641278293e+02 0.0000000000e+00 0.0000e+00 1.0000e+00
       25  2    1    2    0    0 +0.0000000000e+00 +0.0000000000e+00 -1.1973307696e+02 1.7309248891e+02 1.2500000000e+02 0.0000e+00 0.0000e+00
      -15  1    3    3    0    0 +1.2260565737e+01 +5.0198935338e+00 -3.8415701542e+00 1.3908134078e+01 1.7770000000e+00 0.0000e+00 -1.0000e+00
       15  1    3    3    0    0 +4.1098471226e+01 +2.1971394602e+00 -1.3244952060e+01 4.3272372744e+01 1.7770000000e+00 0.0000e+00 -1.0000e+00
       22  1    3    3    0    0 -5.3359036963e+01 -7.2170329939e+00 -1.0264655475e+02 1.1591198209e+02 0.0000000000e+00 0.0000e+00 -1.0000e+00
<mgrwt>
<rscale>  2 0.12500000E+03</rscale>
<asrwt>0</asrwt>
<pdfrwt beam="1">  1       21 0.39234863E-02 0.12500000E+03</pdfrwt>
<pdfrwt beam="2">  1       21 0.21531291E-01 0.12500000E+03</pdfrwt>
<totfact> 0.80876290E+06</totfact>
</mgrwt>
</event>
<event>
 6      0 +1.3698540e+00 1.25000000e+02 7.54677100e-03 1.12640300e-01
       21 -1    0    0  502  501 +0.0000000000e+00 +0.0000000000e+00 +1.3185476455e+02 1.3185476455e+02 0.0000000000e+00 0.0000e+00 -1.0000e+00
       21 -1    0    0  501  502 -0.0000000000e+00 -0.0000000000e+00 -2.9625398925e+01 2.9625398925e+01 0.0000000000e+00 0.0000e+00 -1.0000e+00
       25  2    1    2    0    0 +0.0000000000e+00 +0.0000000000e+00 +1.0222936563e+02 1.6148016348e+02 1.2500000000e+02 0.0000e+00 0.0000e+00
      -15  1    3    3    0    0 +9.1027281047e-01 +6.1947432192e+01 +4.0814123910e+01 7.4210938489e+01 1.7770000000e+00 0.0000e+00 -1.0000e+00
       15  1    3    3    0    0 -9.3048791090e-01 -6.1912414167e+01 +6.1414073812e+01 8.7228774076e+01 1.7770000000e+00 0.0000e+00 -1.0000e+00
       22  1    3    3    0    0 +2.0215100424e-02 -3.5018024994e-02 +1.1679071905e-03 4.0450913053e-02 0.0000000000e+00 0.0000e+00 1.0000e+00
<mgrwt>
<rscale>  2 0.12500000E+03</rscale>
<asrwt>0</asrwt>
<pdfrwt beam="1">  1       21 0.19390406E-01 0.12500000E+03</pdfrwt>
<pdfrwt beam="2">  1       21 0.43566764E-02 0.12500000E+03</pdfrwt>
<totfact> 0.82737810E+06</totfact>
</mgrwt>
</event>
<event>
 6      0 +1.3698540e+00 1.25000000e+02 7.54677100e-03 1.12640300e-01
       21 -1    0    0  502  501 +0.0000000000e+00 +0.0000000000e+00 +1.3966505511e+02 1.3966505511e+02 0.0000000000e+00 0.0000e+00 1.0000e+00
       21 -1    0    0  501  502 -0.0000000000e+00 -0.0000000000e+00 -2.7968699808e+01 2.7968699808e+01 0.0000000000e+00 0.0000e+00 1.0000e+00
       25  2    1    2    0    0 +0.0000000000e+00 +0.0000000000e+00 +1.1169635530e+02 1.6763375492e+02 1.2500000000e+02 0.0000e+00 0.0000e+00
      -15  1    3    3    0    0 -1.5428010566e+01 -5.3638083184e+00 +9.9248795246e+00 1.9195179402e+01 1.7770000000e+00 0.0000e+00 -1.0000e+00
       15  1    3    3    0    0 +3.7519550470e+01 +4.6030528093e+01 +7.2269751935e+01 9.3555336340e+01 1.7770000000e+00 0.0000e+00 -1.0000e+00
       22  1    3    3    0    0 -2.2091539904e+01 -4.0666719775e+01 +2.9501723835e+01 5.4883239170e+01 0.0000000000e+00 0.0000e+00 -1.0000e+00
<mgrwt>
<rscale>  2 0.12500000E+03</rscale>
<asrwt>0</asrwt>
<pdfrwt beam="1">  1       21 0.20538978E-01 0.12500000E+03</pdfrwt>
<pdfrwt beam="2">  1       21 0.41130441E-02 0.12500000E+03</pdfrwt>
<totfact> 0.81741649E+06</totfact>
</mgrwt>
</event>
<event>
 6      0 +1.3698540e+00 1.25000000e+02 7.54677100e-03 1.12640300e-01
       21 -1    0    0  502  501 +0.0000000000e+00 +0.0000000000e+00 +1.3558524868e+02 1.3558524868e+02 0.0000000000e+00 0.0000e+00 -1.0000e+00
       21 -1    0    0  501  502 -0.0000000000e+00 -0.0000000000e+00 -2.8810287535e+01 2.8810287535e+01 0.0000000000e+00 0.0000e+00 -1.0000e+00
       25  2    1    2    0    0 +0.0000000000e+00 +0.0000000000e+00 +1.0677496115e+02 1.6439553622e+02 1.2500000000e+02 0.0000e+00 0.0000e+00
      -15  1    3    3    0    0 +1.9970600250e+01 +3.2334243397e+01 +1.0515258778e+02 1.1182375694e+02 1.7770000000e+00 0.0000e+00 -1.0000e+00
       15  1    3    3    0    0 +9.5846132770e+00 -1.6035293652e+00 +1.0126876419e+00 9.9307292464e+00 1.7770000000e+00 0.0000e+00 -1.0000e+00
       22  1    3    3    0    0 -2.9555213527e+01 -3.0730714031e+01 +6.0968573192e-01 4.2641050036e+01 0.0000000000e+00 0.0000e+00 -1.0000e+00
<mgrwt>
<rscale>  2 0.12500000E+03</rscale>
<asrwt>0</asrwt>
<pdfrwt beam="1">  1       21 0.19939007E-01 0.12500000E+03</pdfrwt>
<pdfrwt beam="2">  1       21 0.42368070E-02 0.12500000E+03</pdfrwt>
<totfact> 0.82264274E+06</totfact>
</mgrwt>
</event>
<event>
 6      0 +1.3698540e+00 1.25000000e+02 7.54677100e-03 1.12640300e-01
       21 -1    0    0  502  501 +0.0000000000e+00 +0.0000000000e+00 +1.3092526782e+01 1.3092526782e+01 0.0000000000e+00 0.0000e+00 1.0000e+00
       21 -1    0    0  501  502 -0.0000000000e+00 -0.0000000000e+00 -2.9835722814e+02 2.9835722814e+02 0.0000000000e+00 0.0000e+00 1.0000e+00
       25  2    1    2    0    0 +0.0000000000e+00 +0.0000000000e+00 -2.8526470136e+02 3.1144975492e+02 1.2500000000e+02 0.0000e+00 0.0000e+00
      -15  1    3    3    0    0 +8.8032055229e+00 -6.6113355383e+00 -7.1106357078e+01 7.1975537032e+01 1.7770000000e+00 0.0000e+00 -1.0000e+00
       15  1    3    3    0    0 -1.2811482199e+01 -4.1785101026e+01 -1.6370077079e+02 1.6944388107e+02 1.7770000000e+00 0.0000e+00 -1.0000e+00
       22  1    3    3    0    0 +4.0082766764e+00 +4.8396436564e+01 -5.0457573511e+01 7.0030336845e+01 0.0000000000e+00 0.0000e+00 -1.0000e+00
<mgrwt>
<rscale>  2 0.12500000E+03</rscale>
<asrwt>0</asrwt>
<pdfrwt beam="1">  1       21 0.19253715E-02 0.12500000E+03</pdfrwt>
<pdfrwt beam="2">  1       21 0.43876065E-01 0.12500000E+03</pdfrwt>
<totfact> 0.62652448E+06</totfact>
</mgrwt>
</event>
<event>
 6      0 +1.3698540e+00 1.25000000e+02 7.54677100e-03 1.12640300e-01
       21 -1    0    0  502  501 +0.0000000000e+00 +0.0000000000e+00 +2.7303474802e+01 2.7303474802e+01 0.0000000000e+00 0.0000e+00 -1.0000e+00
       21 -1    0    0  501  502 -0.0000000000e+00 -0.0000000000e+00 -1.4306787060e+02 1.4306787060e+02 0.0000000000e+00 0.0000e+00 -1.0000e+00
       25  2    1    2    0    0 +0.0000000000e+00 +0.0000000000e+00 -1.1576439580e+02 1.7037134541e+02 1.2500000000e+02 0.0000e+00 0.0000e+00
      -15  1    3    3    0    0 +8.7688241528e+00 -4.5569676727e+00 +1.3279172644e+01 1.6647894355e+01 1.7770000000e+00 0.0000e+00 -1.0000e+00
       15  1    3    3    0    0 +1.5236995914e+01 +1.7381825145e+01 -1.4160910572e+00 2.3226212190e+01 1.7770000000e+00 0.0000e+00 -1.0000e+00
       22  1    3    3    0    0 -2.4005820066e+01 -1.2824857472e+01 -1.2762747738e+02 1.3049723885e+02 0.0000000000e+00 0.0000e+00 -1.0000e+00
<mgrwt>
<rscale>  2 0.12500000E+03</rscale>
<asrwt>0</asrwt>
<pdfrwt beam="1">  1       21 0.40152169E-02 0.12500000E+03</pdfrwt>
<pdfrwt beam="2">  1       21 0.21039393E-01 0.12500000E+03</pdfrwt>
<totfact> 0.81305300E+06</totfact>
</mgrwt>
</event>
<event>
 6      0 +1.3698540e+00 1.25000000e+02 7.54677100e-03 1.12640300e-01
       21 -1    0    0  502  501 +0.0000000000e+00 +0.0000000000e+00 +4.6668184693e+02 4.6668184693e+02 0.0000000000e+00 0.0000e+00 1.0000e+00
       21 -1    0    0  501  502 -0.0000000000e+00 -0.0000000000e+00 -8.3702634369e+00 8.3702634369e+00 0.0000000000e+00 0.0000e+00 1.0000e+00
       25  2    1    2    0    0 +0.0000000000e+00 +0.0000000000e+00 +4.5831158349e+02 4.7505211036e+02 1.2500000000e+02 0.0000e+00 0.0000e+00
      -15  1    3    3    0    0 +3.0659747858e+01 +4.7650485034e+01 +1.2915506466e+02 1.4104884728e+02 1.7770000000e+00 0.0000e+00 1.0000e+00
       15  1    3    3    0    0 -3.0656298944e+01 -4.7629130105e+01 +3.2907428552e+02 3.3391823224e+02 1.7770000000e+00 0.0000e+00 1.0000e+00
       22  1    3    3    0    0 -3.4489144930e-03 -2.1354928648e-02 +8.2233357489e-02 8.5030894812e-02 0.0000000000e+00 0.0000e+00 -1.0000e+00
<mgrwt>
<rscale>  2 0.12500000E+03</rscale>
<asrwt>0</asrwt>
<pdfrwt beam="1">  1       21 0.68629666E-01 0.12500000E+03</pdfrwt>
<pdfrwt beam="2">  1       21 0.12309214E-02 0.12500000E+03</pdfrwt>
<totfact> 0.47241998E+06</totfact>
</mgrwt>
</event>
<event>
 6      0 +1.3698540e+00 1.25000000e+02 7.54677100e-03 1.12640300e-01
       21 -1    0    0  502  501 +0.0000000000e+00 +0.0000000000e+00 +1.4077467664e+02 1.4077467664e+02 0.0000000000e+00 0.0000e+00 -1.0000e+00
       21 -1    0    0  501  502 -0.0000000000e+00 -0.0000000000e+00 -2.7748243458e+01 2.7748243458e+01 0.0000000000e+00 0.0000e+00 -1.0000e+00
       25  2    1    2    0    0 +0.0000000000e+00 +0.0000000000e+00 +1.1302643318e+02 1.6852292009e+02 1.2500000000e+02 0.0000e+00 0.0000e+00
      -15  1    3    3    0    0 +5.3542109337e+00 +5.7683949945e+01 +4.0733929125e+01 7.0841487611e+01 1.7770000000e+00 0.0000e+00 -1.0000e+00
       15  1    3    3    0    0 +1.4845884896e+00 -2.6111118710e+01 +5.5257877054e+01 6.1160323976e+01 1.7770000000e+00 0.0000e+00 -1.0000e+00
       22  1    3    3    0    0 -6.8387994233e+00 -3.1572831234e+01 +1.7034627007e+01 3.6521108512e+01 0.0000000000e+00 0.0000e+00 -1.0000e+00
<mgrwt>
<rscale>  2 0.12500000E+03</rscale>
<asrwt>0</asrwt>
<pdfrwt beam="1">  1       21 0.20702158E-01 0.12500000E+03</pdfrwt>
<pdfrwt beam="2">  1       21 0.40806241E-02 0.12500000E+03</pdfrwt>
<totfact> 0.81599382E+06</totfact>
</mgrwt>
</event>
<event>
 6      0 +1.3698540e+00 1.25000000e+02 7.54677100e-03 1.12640300e-01
       21 -1    0    0  502  501 +0.0000000000e+00 +0.0000000000e+00 +3.1546376711e+02 3.1546376711e+02 0.0000000000e+00 0.0000e+00 -1.0000e+00
       21 -1    0    0  501  502 -0.0000000000e+00 -0.0000000000e+00 -1.2382563093e+01 1.2382563093e+01 0.0000000000e+00 0.0000e+00 -1.0000e+00
       25  2    1    2    0    0 +0.0000000000e+00 +0.0000000000e+00 +3.0308120402e+02 3.2784633021e+02 1.2500000000e+02 0.0000e+00 0.0000e+00
      -15  1    3    3    0    0 +2.2743183647e+00 +1.7877411452e+01 +2.2637266976e+02 2.2709583375e+02 1.7770000000e+00 0.0000e+00 -1.0000e+00
       15  1    3    3    0    0 +3.7282664878e+00 +2.3177207304e+01 +2.3343156194e+01 3.3153334365e+01 1.7770000000e+00 0.0000e+00 -1.0000e+00
       22  1    3    3    0    0 -6.0025848524e+00 -4.1054618756e+01 +5.3365378044e+01 6.7597162070e+01 0.0000000000e+00 0.0000e+00 -1.0000e+00
<mgrwt>
<rscale>  2 0.12500000E+03</rscale>
<asrwt>0</asrwt>
<pdfrwt beam="1">  1       21 0.46391725E-01 0.12500000E+03</pdfrwt>
<pdfrwt beam="2">  1       21 0.18209654E-02 0.12500000E+03</pdfrwt>
<totfact> 0.60854412E+06</totfact>
</mgrwt>
</event>
<event>
 6      0 +1.3698540e+00 1.25000000e+02 7.54677100e-03 1.12640300e-01
       21 -1    0    0  502  501 +0.0000000000e+00 +0.0000000000e+00 +1.8684025482e+01 1.8684025482e+01 0.0000000000e+00 0.0000e+00 -1.0000e+00
       21 -1    0    0  501  502 -0.0000000000e+00 -0.0000000000e+00 -2.0906897199e+02 2.0906897199e+02 0.0000000000e+00 0.0000e+00 -1.0000e+00
       25  2    1    2    0    0 +0.0000000000e+00 +0.0000000000e+00 -1.9038494651e+02 2.2775299747e+02 1.2500000000e+02 0.0000e+00 0.0000e+00
      -15  1    3    3    0    0 -3.5689590777e+01 +6.7574705333e+00 -2.4299944411e+01 4.3738487916e+01 1.7770000000e+00 0.0000e+00 -1.0000e+00
       15  1    3    3    0    0 +1.3847726535e+01 -1.0814464281e+00 -1.6004018047e+02 1.6065162978e+02 1.7770000000e+00 0.0000e+00 -1.0000e+00
       22  1    3    3    0    0 +2.1841864241e+01 -5.6760241052e+00 -6.0448216351e+00 2.3362879783e+01 0.0000000000e+00 0.0000e+00 -1.0000e+00
<mgrwt>
<rscale>  2 0.12500000E+03</rscale>
<asrwt>0</asrwt>
<pdfrwt beam="1">  1       21 0.27476508E-02 0.12500000E+03</pdfrwt>
<pdfrwt beam="2">  1       21 0.30745437E-01 0.12500000E+03</pdfrwt>
<totfact> 0.72939628E+06</totfact>
</mgrwt>
</event>
<event>
 6      0 +1.3698540e+00 1.25000000e+02 7.54677100e-03 1.12640300e-01
       21 -1    0    0  502  501 +0.0000000000e+00 +0.0000000000e+00 +4.3065722053e+02 4.3065722053e+02 0.0000000000e+00 0.0000e+00 1.0000e+00
       21 -1    0    0  501  502 -0.0000000000e+00 -0.0000000000e+00 -9.0704388868e+00 9.0704388868e+00 0.0000000000e+00 0.0000e+00 1.0000e+00
       25  2    1    2    0    0 +0.0000000000e+00 +0.0000000000e+00 +4.2158678165e+02 4.3972765942e+02 1.2500000000e+02 0.0000e+00 0.0000e+00
      -15  1    3    3    0    0 -9.8541311275e+00 -6.1567952716e+01 +2.2454142460e+02 2.3304447171e+02 1.7770000000e+00 0.0000e+00 -1.0000e+00
       15  1    3    3    0    0 +9.8569211931e+00 +6.1564621833e+01 +1.9703362958e+02 2.0667068121e+02 1.7770000000e+00 0.0000e+00 -1.0000e+00
       22  1    3    3    0    0 -2.7900656816e-03 +3.3308822867e-03 +1.1727506287e-02 1.2506544168e-02 0.0000000000e+00 0.0000e+00 -1.0000e+00
<mgrwt>
<rscale>  2 0.12500000E+03</rscale>
<asrwt>0</asrwt>
<pdfrwt beam="1">  1       21 0.63331930E-01 0.12500000E+03</pdfrwt>
<pdfrwt beam="2">  1       21 0.13338884E-02 0.12500000E+03</pdfrwt>
<totfact> 0.50138461E+06</totfact>
</mgrwt>
</event>
<event>
 6      0 +1.3698540e+00 1.25000000e+02 7.54677100e-03 1.12640300e-01
       21 -1    0    0  502  501 +0.0000000000e+00 +0.0000000000e+00 +5.0144520386e+01 5.0144520386e+01 0.0000000000e+00 0.0000e+00 1.0000e+00
       21 -1    0    0  501  502 -0.0000000000e+00 -0.0000000000e+00 -7.7899837707e+01 7.7899837707e+01 0.0000000000e+00 0.0000e+00 1.0000e+00
       25  2    1    2    0    0 +0.0000000000e+00 +0.0000000000e+00 -2.7755317321e+01 1.2804435809e+02 1.2500000000e+02 0.0000e+00 0.0000e+00
      -15  1    3    3    0    0 +4.5278620958e+01 -2.7218579240e+01 -9.5775422971e+00 5.3720495317e+01 1.7770000000e+00 0.0000e+00 1.0000e+00
       15  1    3    3    0    0 -5.3403438526e+01 +3.2154585827e+01 -1.3864607569e+01 6.3884502880e+01 1.7770000000e+00 0.0000e+00 1.0000e+00
       22  1    3    3    0    0 +8.1248175682e+00 -4.9360065875e+00 -4.3131674561e+00 1.0439359897e+01 0.0000000000e+00 0.0000e+00 1.0000e+00
<mgrwt>
<rscale>  2 0.12500000E+03</rscale>
<asrwt>0</asrwt>
<pdfrwt beam="1">  1       21 0.73741941E-02 0.12500000E+03</pdfrwt>
<pdfrwt beam="2">  1       21 0.11455859E-01 0.12500000E+03</pdfrwt>
<totfact> 0.88449853E+06</totfact>
</mgrwt>
</event>
<event>
 6      0 +1.3698540e+00 1.25000000e+02 7.54677100e-03 1.12640300e-01
       21 -1    0    0  502  501 +0.0000000000e+00 +0.0000000000e+00 +5.6783411608e+02 5.6783411608e+02 0.0000000000e+00 0.0000e+00 1.0000e+00
       21 -1    0    0  501  502 -0.0000000000e+00 -0.0000000000e+00 -6.8792097716e+00 6.8792097716e+00 0.0000000000e+00 0.0000e+00 1.0000e+00
       25  2    1    2    0    0 +0.0000000000e+00 +0.0000000000e+00 +5.6095490631e+02 5.7471332585e+02 1.2500000000e+02 0.0000e+00 0.0000e+00
      -15  1    3    3    0    0 -7.0527269045e-01 -4.2542220974e+01 +1.1891056140e+02 1.2630604624e+02 1.7770000000e+00 0.0000e+00 -1.0000e+00
       15  1    3    3    0    0 -1.1296207004e+01 -1.2217386192e+01 +6.0697512615e+01 6.2962009058e+01 1.7770000000e+00 0.0000e+00 -1.0000e+00
       22  1    3    3    0    0 +1.2001479694e+01 +5.4759607166e+01 +3.8134683236e+02 3.8544527062e+02 0.0000000000e+00 0.0000e+00 -1.0000e+00
<mgrwt>
<rscale>  2 0.12500000E+03</rscale>
<asrwt>0</asrwt>
<pdfrwt beam="1">  1       21 0.83504985E-01 0.12500000E+03</pdfrwt>
<pdfrwt beam="2">  1       21 0.10116489E-02 0.12500000E+03</pdfrwt>
<totfact> 0.40155930E+06</totfact>
</mgrwt>
</event>
<event>
 6      0 +1.3698540e+00 1.25000000e+02 7.54677100e-03 1.12640300e-01
       21 -1    0    0  502  501 +0.0000000000e+00 +0.0000000000e+00 +3.5441034760e+01 3.5441034760e+01 0.0000000000e+00 0.0000e+00 1.0000e+00
       21 -1    0    0  501  502 -0.0000000000e+00 -0.0000000000e+00 -1.1021828303e+02 1.1021828303e+02 0.0000000000e+00 0.0000e+00 1.0000e+00
       25  2    1    2    0    0 +0.0000000000e+00 +0.0000000000e+00 -7.4777248268e+01 1.4565931779e+02 1.2500000000e+02 0.0000e+00 0.0000e+00
      -15  1    3    3    0    0 -2.1712325991e+01 -7.1037557119e+00 +8.6205188914e+00 2.4481820196e+01 1.7770000000e+00 0.0000e+00 -1.0000e+00
       15  1    3    3    0    0 -2.4560420847e+00 -1.1583972319e+01 +1.4394770881e+01 1.8723987693e+01 1.7770000000e+00 0.0000e+00 -1.0000e+00
       22  1    3    3    0    0 +2.4168368076e+01 +1.8687728031e+01 -9.7792538039e+01 1.0245350990e+02 0.0000000000e+00 0.0000e+00 -1.0000e+00
<mgrwt>
<rscale>  2 0.12500000E+03</rscale>
<asrwt>0</asrwt>
<pdfrwt beam="1">  1       21 0.52119168E-02 0.12500000E+03</pdfrwt>
<pdfrwt beam="2">  1       21 0.16208571E-01 0.12500000E+03</pdfrwt>
<totfact> 0.85361075E+06</totfact>
</mgrwt>
</event>
<event>
 6      0 +1.3698540e+00 1.25000000e+02 7.54677100e-03 1.12640300e-01
       21 -1    0    0  502  501 +0.0000000000e+00 +0.0000000000e+00 +3.9543935963e+00 3.9543935963e+00 0.0000000000e+00 0.0000e+00 1.0000e+00
       21 -1    0    0  501  502 -0.0000000000e+00 -0.0000000000e+00 -9.8782528974e+02 9.8782528974e+02 0.0000000000e+00 0.0000e+00 1.0000e+00
       25  2    1    2    0    0 +0.0000000000e+00 +0.0000000000e+00 -9.8387089615e+02 9.9177968334e+02 1.2500000000e+02 0.0000e+00 0.0000e+00
      -15  1    3    3    0    0 +9.1140216805e+00 +3.4649618373e+01 -1.4373729680e+02 1.4814597418e+02 1.7770000000e+00 0.0000e+00 -1.0000e+00
       15  1    3    3    0    0 +1.5377181410e+01 -4.6538534811e+01 -4.9267844069e+02 4.9511361987e+02 1.7770000000e+00 0.0000e+00 -1.0000e+00
       22  1    3    3    0    0 -2.4491203090e+01 +1.1888916439e+01 -3.4745515881e+02 3.4852008945e+02 0.0000000000e+00 0.0000e+00 -1.0000e+00
<mgrwt>
<rscale>  2 0.12500000E+03</rscale>
<asrwt>0</asrwt>
<pdfrwt beam="1">  1       21 0.58152843E-03 0.12500000E+03</pdfrwt>
<pdfrwt beam="2">  1       21 0.14526844E+00 0.12500000E+03</pdfrwt>
<totfact> 0.21427817E+06</totfact>
</mgrwt>
</event>
<event>
 6      0 +1.3698540e+00 1.25000000e+02 7.54677100e-03 1.12640300e-01
       21 -1    0    0  502  501 +0.0000000000e+00 +0.0000000000e+00 +6.6561060345e+01 6.6561060345e+01 0.0000000000e+00 0.0000e+00 1.0000e+00
       21 -1    0    0  501  502 -0.0000000000e+00 -0.0000000000e+00 -5.8686715322e+01 5.8686715322e+01 0.0000000000e+00 0.0000e+00 1.0000e+00
       25  2    1    2    0    0 +0.0000000000e+00 +0.0000000000e+00 +7.8743450238e+00 1.2524777567e+02 1.2500000000e+02 0.0000e+00 0.0000e+00
      -15  1    3    3    0    0 +3.8248510821e+01 -3.7658570655e+01 -1.7017651651e+01 5.6337152221e+01 1.7770000000e+00 0.0000e+00 -1.0000e+00
       15  1    3    3    0    0 -4.2045715427e+01 +4.0550760574e+01 +2.6073001528e+01 6.3993480188e+01 1.7770000000e+00 0.0000e+00 -1.0000e+00
       22  1    3    3    0    0 +3.7972046059e+00 -2.8921899197e+00 -1.1810048533e+00 4.9171432574e+00 0.0000000000e+00 0.0000e+00 -1.0000e+00
<mgrwt>
<rscale>  2 0.12500000E+03</rscale>
<asrwt>0</asrwt>
<pdfrwt beam="1">  1       21 0.97883912E-02 0.12500000E+03</pdfrwt>
<pdfrwt beam="2">  1       21 0.86303993E-02 0.12500000E+03</pdfrwt>
<totfact> 0.88951409E+06</totfact>
</mgrwt>
</event>
<event>
 6      0 +1.3698540e+00 1.25000000e+02 7.54677100e-03 1.12640300e-01
       21 -1    0    0  502  501 +0.0000000000e+00 +0.0000000000e+00 +8.4700097415e+01 8.4700097415e+01 0.0000000000e+00 0.0000e+00 -1.0000e+00
       21 -1    0    0  501  502 -0.0000000000e+00 -0.0000000000e+00 -4.6118601032e+01 4.6118601032e+01 0.0000000000e+00 0.0000e+00 -1.0000e+00
       25  2    1    2    0    0 +0.0000000000e+00 +0.0000000000e+00 +3.8581496383e+01 1.3081869845e+02 1.2500000000e+02 0.0000e+00 0.0000e+00
      -15  1    3    3    0    0 -2.7817189713e+01 -6.5900278398e+00 -1.0752946902e+00 2.8662492880e+01 1.7770000000e+00 0.0000e+00 -1.0000e+00
       15  1    3    3    0    0 -2.7935910921e-01 -1.2796065669e+01 -2.5506736466e+01 2.8593157788e+01 1.7770000000e+00 0.0000e+00 -1.0000e+00
       22  1    3    3    0    0 +2.8096548822e+01 +1.9386093509e+01 +6.5163527538e+01 7.3563047778e+01 0.0000000000e+00 0.0000e+00 -1.0000e+00
<mgrwt>
<rscale>  2 0.12500000E+03</rscale>
<asrwt>0</asrwt>
<pdfrwt beam="1">  1       21 0.12455897E-01 0.12500000E+03</pdfrwt>
<pdfrwt beam="2">  1       21 0.67821472E-02 0.12500000E+03</pdfrwt>
<totfact> 0.87948900E+06</totfact>
</mgrwt>
</event>
<event>
 6      0 +1.3698540e+00 1.25000000e+02 7.54677100e-03 1.12640300e-01
       21 -1    0    0  502  501 +0.0000000000e+00 +0.0000000000e+00 +6.4064605844e+00 6.4064605844e+00 0.0000000000e+00 0.0000e+00 -1.0000e+00
       21 -1    0    0  501  502 -0.0000000000e+00 -0.0000000000e+00 -6.0973605450e+02 6.0973605450e+02 0.0000000000e+00 0.0000e+00 -1.0000e+00
       25  2    1    2    0    0 +0.0000000000e+00 +0.0000000000e+00 -6.0332959391e+02 6.1614251508e+02 1.2500000000e+02 0.0000e+00 0.0000e+00
      -15  1    3    3    0    0 +4.5194578561e-01 +2.3917428950e+00 -1.0213837124e+02 1.0218282291e+02 1.7770000000e+00 0.0000e+00 -1.0000e+00
       15  1    3    3    0    0 -3.6401538353e+01 -1.6195713923e-02 -4.4936779105e+02 4.5084325615e+02 1.7770000000e+00 0.0000e+00 -1.0000e+00
       22  1    3    3    0    0 +3.5949592567e+01 -2.3755471810e+00 -5.1823431595e+01 6.3116435993e+01 0.0000000000e+00 0.0000e+00 -1.0000e+00
<mgrwt>
<rscale>  2 0.12500000E+03</rscale>
<asrwt>0</asrwt>
<pdfrwt beam="1">  1       21 0.94212678E-03 0.12500000E+03</pdfrwt>
<pdfrwt beam="2">  1       21 0.89667045E-01 0.12500000E+03</pdfrwt>
<totfact> 0.37509548E+06</totfact>
</mgrwt>
</event>
<event>
 6      0 +1.3698540e+00 1.25000000e+02 7.54677100e-03 1.12640300e-01
       21 -1    0    0  502  501 +0.0000000000e+00 +0.0000000000e+00 +1.5339567747e+02 1.5339567747e+02 0.0000000000e+00 0.0000e+00 -1.0000e+00
       21 -1    0    0  501  502 -0.0000000000e+00 -0.0000000000e+00 -2.5465189531e+01 2.5465189531e+01 0.0000000000e+00 0.0000e+00 -1.0000e+00
       25  2    1    2    0    0 +0.0000000000e+00 +0.0000000000e+00 +1.2793048794e+02 1.7886086700e+02 1.2500000000e+02 0.0000e+00 0.0000e+00
      -15  1    3    3    0    0 -1.2436591878e+01 -8.7020195627e+00 -7.6139443298e-01 1.5301353290e+01 1.7770000000e+00 0.0000e+00 -1.0000e+00
       15  1    3    3    0    0 +2.8227132722e+01 +4.4061720791e+01 +3.7253296470e+01 6.4258634343e+01 1.7770000000e+00 0.0000e+00 -1.0000e+00
       22  1    3    3    0    0 -1.5790540844e+01 -3.5359701229e+01 +9.1438585907e+01 9.9300879371e+01 0.0000000000e+00 0.0000e+00 -1.0000e+00
<mgrwt>
<rscale>  2 0.12500000E+03</rscale>
<asrwt>0</asrwt>
<pdfrwt beam="1">  1       21 0.22558188E-01 0.12500000E+03</pdfrwt>
<pdfrwt beam="2">  1       21 0.37448809E-02 0.12500000E+03</pdfrwt>
<totfact> 0.79981066E+06</totfact>
</mgrwt>
</event>
<event>
 6      0 +1.3698540e+00 1.25000000e+02 7.54677100e-03 1.12640300e-01
       21 -1    0    0  502  501 +0.0000000000e+00 +0.0000000000e+00 +4.2502620020e+02 4.2502620020e+02 0.0000000000e+00 0.0000e+00 1.0000e+00
       21 -1    0    0  501  502 -0.0000000000e+00 -0.0000000000e+00 -9.1906098922e+00 9.1906098922e+00 0.0000000000e+00 0.0000e+00 1.0000e+00
       25  2    1    2    0    0 +0.0000000000e+00 +0.0000000000e+00 +4.1583559031e+02 4.3421681009e+02 1.2500000000e+02 0.0000e+00 0.0000e+00
      -15  1    3    3    0    0 -1.8860563496e+01 +7.4695308189e-01 +2.4819809564e+01 3.1232346534e+01 1.7770000000e+00 0.0000e+00 -1.0000e+00
       15  1    3    3    0    0 +2.1187955903e+01 -3.7518869706e+01 +3.2082728677e+02 3.2371268236e+02 1.7770000000e+00 0.0000e+00 -1.0000e+00
       22  1    3    3    0    0 -2.3273924073e+00 +3.6771916624e+01 +7.0188494029e+01 7.9271781244e+01 0.0000000000e+00 0.0000e+00 -1.0000e+00
<mgrwt>
<rscale>  2 0.12500000E+03</rscale>
<asrwt>0</asrwt>
<pdfrwt beam="1">  1       21 0.62503840E-01 0.12500000E+03</pdfrwt>
<pdfrwt beam="2">  1       21 0.13515606E-02 0.12500000E+03</pdfrwt>
<totfact> 0.50608919E+06</totfact>
</mgrwt>
</event>
<event>
 6      0 +1.3698540e+00 1.25000000e+02 7.54677100e-03 1.12640300e-01
       21 -1    0    0  502  501 +0.0000000000e+00 +0.0000000000e+00 +1.6915863071e+01 1.6915863071e+01 0.0000000000e+00 0.0000e+00 1.0000e+00
       21 -1    0    0  501  502 -0.0000000000e+00 -0.0000000000e+00 -2.3092229960e+02 2.3092229960e+02 0.0000000000e+00 0.0000e+00 1.0000e+00
       25  2    1    2    0    0 +0.0000000000e+00 +0.0000000000e+00 -2.1400643653e+02 2.4783816267e+02 1.2500000000e+02 0.0000e+00 0.0000e+00
      -15  1    3    3    0    0 +2.7087527189e+01 +2.0102202763e+01 -1.2522153000e+01 3.6024918181e+01 1.7770000000e+00 0.0000e+00 -1.0000e+00
       15  1    3    3    0    0 +1.5582725433e+01 -9.7076264626e+00 -3.4164350593e+01 3.8825506100e+01 1.7770000000e+00 0.0000e+00 -1.0000e+00
       22  1    3    3    0    0 -4.2670252622e+01 -1.0394576300e+01 -1.6731993294e+02 1.7298773839e+02 0.0000000000e+00 0.0000e+00 -1.0000e+00
<mgrwt>
<rscale>  2 0.12500000E+03</rscale>
<asrwt>0</asrwt>
<pdfrwt beam="1">  1       21 0.24876272E-02 0.12500000E+03</pdfrwt>
<pdfrwt beam="2">  1       21 0.33959158E-01 0.12500000E+03</pdfrwt>
<totfact> 0.70281884E+06</totfact>
</mgrwt>
</event>
<event>
 6      0 +1.3698540e+00 1.25000000e+02 7.54677100e-03 1.12640300e-01
       21 -1    0    0  502  501 +0.0000000000e+00 +0.0000000000e+00 +1.0187735328e+03 1.0187735328e+03 0.0000000000e+00 0.0000e+00 -1.0000e+00
       21 -1    0    0  501  502 -0.0000000000e+00 -0.0000000000e+00 -3.8342672580e+00 3.8342672580e+00 0.0000000000e+00 0.0000e+00 -1.0000e+00
       25  2    1    2    0    0 +0.0000000000e+00 +0.0000000000e+00 +1.0149392655e+03 1.0226078000e+03 1.2500000000e+02 0.0000e+00 0.0000e+00
      -15  1    3    3    0    0 +3.9858260156e+01 +2.0163871945e+01 +2.4337328312e+02 2.4744489346e+02 1.7770000000e+00 0.0000e+00 -1.0000e+00
       15  1    3    3    0    0 -2.2929669735e+01 -3.0386987221e+01 +2.2243423366e+02 2.2567517538e+02 1.7770000000e+00 0.0000e+00 -1.0000e+00
       22  1    3    3    0    0 -1.6928590421e+01 +1.0223115276e+01 +5.4913174978e+02 5.4948773224e+02 0.0000000000e+00 0.0000e+00 -1.0000e+00
<mgrwt>
<rscale>  2 0.12500000E+03</rscale>
<asrwt>0</asrwt>
<pdfrwt beam="1">  1       21 0.14981945E+00 0.12500000E+03</pdfrwt>
<pdfrwt beam="2">  1       21 0.56386354E-03 0.12500000E+03</pdfrwt>
<totfact> 0.20513564E+06</totfact>
</mgrwt>
</event>
<event>
 6      0 +1.3698540e+00 1.25000000e+02 7.54677100e-03 1.12640300e-01
       21 -1    0    0  502  501 +0.0000000000e+00 +0.0000000000e+00 +3.9685827945e+01 3.9685827945e+01 0.0000000000e+00 0.0000e+00 -1.0000e+00
       21 -1    0    0  501  502 -0.0000000000e+00 -0.0000000000e+00 -9.8429343730e+01 9.8429343730e+01 0.0000000000e+00 0.0000e+00 -1.0000e+00
       25  2    1    2    0    0 +0.0000000000e+00 +0.0000000000e+00 -5.8743515784e+01 1.3811517167e+02 1.2500000000e+02 0.0000e+00 0.0000e+00
      -15  1    3    3    0    0 -8.7767373897e+00 -5.3583500365e+01 -6.3496193034e+01 8.3565225359e+01 1.7770000000e+00 0.0000e+00 -1.0000e+00
       15  1    3    3    0    0 +8.8050329763e+00 +5.3010634487e+01 +4.6470569542e+00 5.3966738291e+01 1.7770000000e+00 0.0000e+00 -1.0000e+00
       22  1    3    3    0    0 -2.8295586581e-02 +5.7286587825e-01 +1.0562029282e-01 5.8320802544e-01 0.0000000000e+00 0.0000e+00 -1.0000e+00
<mgrwt>
<rscale>  2 0.12500000E+03</rscale>
<asrwt>0</asrwt>
<pdfrwt beam="1">  1       21 0.58361512E-02 0.12500000E+03</pdfrwt>
<pdfrwt beam="2">  1       21 0.14474903E-01 0.12500000E+03</pdfrwt>
<totfact> 0.86665477E+06</totfact>
</mgrwt>
</event>
<event>
 6      0 +1.3698540e+00 1.25000000e+02 7.54677100e-03 1.12640300e-01
       21 -1    0    0  502  501 +0.0000000000e+00 +0.0000000000e+00 +2.2700733171e+01 2.2700733171e+01 0.0000000000e+00 0.0000e+00 -1.0000e+00
       21 -1    0    0  501  502 -0.0000000000e+00 -0.0000000000e+00 -1.7207594004e+02 1.7207594004e+02 0.0000000000e+00 0.0000e+00 -1.0000e+00
       25  2    1    2    0    0 +0.0000000000e+00 +0.0000000000e+00 -1.4937520687e+02 1.9477667321e+02 1.2500000000e+02 0.0000e+00 0.0000e+00
      -15  1    3    3    0    0 -1.4721715952e+01 +1.1060246825e+01 -4.3482011596e+01 4.7253582318e+01 1.7770000000e+00 0.0000e+00 -1.0000e+00
       15  1    3    3    0    0 +3.6241143057e+01 +3.1412056538e+01 -2.6169700844e+01 5.4663961778e+01 1.7770000000e+00 0.0000e+00 -1.0000e+00
       22  1    3    3    0    0 -2.1519427105e+01 -4.2472303364e+01 -7.9723494434e+01 9.2859129119e+01 0.0000000000e+00 0.0000e+00 -1.0000e+00
<mgrwt>
<rscale>  2 0.12500000E+03</rscale>
<asrwt>0</asrwt>
<pdfrwt beam="1">  1       21 0.33383430E-02 0.12500000E+03</pdfrwt>
<pdfrwt beam="2">  1       21 0.25305286E-01 0.12500000E+03</pdfrwt>
<totfact> 0.77587646E+06</totfact>
</mgrwt>
</event>
<event>
 6      0 +1.3698540e+00 1.25000000e+02 7.54677100e-03 1.12640300e-01
       21 -1    0    0  502  501 +0.0000000000e+00 +0.0000000000e+00 +1.8012202665e+02 1.8012202665e+02 0.0000000000e+00 0.0000e+00 1.0000e+00
       21 -1    0    0  501  502 -0.0000000000e+00 -0.0000000000e+00 -2.1686686923e+01 2.1686686923e+01 0.0000000000e+00 0.0000e+00 1.0000e+00
       25  2    1    2    0    0 +0.0000000000e+00 +0.0000000000e+00 +1.5843533973e+02 2.0180871358e+02 1.2500000000e+02 0.0000e+00 0.0000e+00
      -15  1    3    3    0    0 +1.1448011723e+00 +6.3742232702e+00 +1.7555250384e+01 1.8795899474e+01 1.7770000000e+00 0.0000e+00 -1.0000e+00
       15  1    3    3    0    0 +5.2458031276e+01 -2.4892423900e+01 +8.8179954976e+01 1.0559517035e+02 1.7770000000e+00 0.0000e+00 -1.0000e+00
       22  1    3    3    0    0 -5.3602832449e+01 +1.8518200630e+01 +5.2700134363e+01 7.7417643744e+01 0.0000000000e+00 0.0000e+00 -1.0000e+00
<mgrwt>
<rscale>  2 0.12500000E+03</rscale>
<asrwt>0</asrwt>
<pdfrwt beam="1">  1       21 0.26488533E-01 0.12500000E+03</pdfrwt>
<pdfrwt beam="2">  1       21 0.31892188E-02 0.12500000E+03</pdfrwt>
<totfact> 0.76555800E+06</totfact>
</mgrwt>
</event>
<event>
 6      0 +1.3698540e+00 1.25000000e+02 7.54677100e-03 1.12640300e-01
       21 -1    0    0  502  501 +0.0000000000e+00 +0.0000000000e+00 +1.9838771879e+03 1.9838771879e+03 0.0000000000e+00 0.0000e+00 -1.0000e+00
       21 -1    0    0  501  502 -0.0000000000e+00 -0.0000000000e+00 -1.9689978916e+00 1.9689978916e+00 0.0000000000e+00 0.0000e+00 -1.0000e+00
       25  2    1    2    0    0 +0.0000000000e+00 +0.0000000000e+00 +1.9819081900e+03 1.9858461858e+03 1.2500000000e+02 0.0000e+00 0.0000e+00
      -15  1    3    3    0    0 +6.8183648671e+00 +1.6158130380e+01 +5.9214521309e+02 5.9240753404e+02 1.7770000000e+00 0.0000e+00 -1.0000e+00
       15  1    3    3    0    0 +3.1480791990e+01 -2.4836192352e+01 +1.1310771023e+03 1.1317890465e+03 1.7770000000e+00 0.0000e+00 -1.0000e+00
       22  1    3    3    0    0 -3.8299156857e+01 +8.6780619723e+00 +2.5868587039e+02 2.6164960103e+02 0.0000000000e+00 0.0000e+00 -1.0000e+00
<mgrwt>
<rscale>  2 0.12500000E+03</rscale>
<asrwt>0</asrwt>
<pdfrwt beam="1">  1       21 0.29174525E+00 0.12500000E+03</pdfrwt>
<pdfrwt beam="2">  1       21 0.28955990E-03 0.12500000E+03</pdfrwt>
<totfact> 0.54972139E+05</totfact>
</mgrwt>
</event>
<event>
 6      0 +1.3698540e+00 1.25000000e+02 7.54677100e-03 1.12640300e-01
       21 -1    0    0  502  501 +0.0000000000e+00 +0.0000000000e+00 +1.5509987383e+02 1.5509987383e+02 0.0000000000e+00 0.0000e+00 1.0000e+00
       21 -1    0    0  501  502 -0.0000000000e+00 -0.0000000000e+00 -2.5185384769e+01 2.5185384769e+01 0.0000000000e+00 0.0000e+00 1.0000e+00
       25  2    1    2    0    0 +0.0000000000e+00 +0.0000000000e+00 +1.2991448906e+02 1.8028525860e+02 1.2500000000e+02 0.0000e+00 0.0000e+00
      -15  1    3    3    0    0 +1.2696561304e+01 -2.7673920373e+01 +1.4363486136e+02 1.4683725571e+02 1.7770000000e+00 0.0000e+00 1.0000e+00
       15  1    3    3    0    0 -1.2072851852e+01 +2.6494491634e+01 -1.3078176315e+01 3.1967299909e+01 1.7770000000e+00 0.0000e+00 1.0000e+00
       22  1    3    3    0    0 -6.2370945180e-01 +1.1794287388e+00 -6.4219598454e-01 1.4807029793e+00 0.0000000000e+00 0.0000e+00 1.0000e+00
<mgrwt>
<rscale>  2 0.12500000E+03</rscale>
<asrwt>0</asrwt>
<pdfrwt beam="1">  1       21 0.22808804E-01 0.12500000E+03</pdfrwt>
<pdfrwt beam="2">  1       21 0.37037331E-02 0.12500000E+03</pdfrwt>
<totfact> 0.79762745E+06</totfact>
</mgrwt>
</event>
<event>
 6      0 +1.3698540e+00 1.25000000e+02 7.54677100e-03 1.12640300e-01
       21 -1    0    0  502  501 +0.0000000000e+00 +0.0000000000e+00 +1.4384243848e+01 1.4384243848e+01 0.0000000000e+00 0.0000e+00 1.0000e+00
       21 -1    0    0  501  502 -0.0000000000e+00 -0.0000000000e+00 -2.7156450079e+02 2.7156450079e+02 0.0000000000e+00 0.0000e+00 1.0000e+00
       25  2    1    2    0    0 +0.0000000000e+00 +0.0000000000e+00 -2.5718025695e+02 2.8594874464e+02 1.2500000000e+02 0.0000e+00 0.0000e+00
      -15  1    3    3    0    0 -1.4746962099e+00 -3.5714982813e+01 -1.2276267811e+02 1.2787324815e+02 1.7770000000e+00 0.0000e+00 -1.0000e+00
       15  1    3    3    0    0 -1.1254594790e+00 -2.1358485777e+01 -1.6587270427e+01 2.7124653785e+01 1.7770000000e+00 0.0000e+00 -1.0000e+00
       22  1    3    3    0    0 +2.6001556889e+00 +5.7073468590e+01 -1.1783030844e+02 1.3095084274e+02 0.0000000000e+00 0.0000e+00 -1.0000e+00
<mgrwt>
<rscale>  2 0.12500000E+03</rscale>
<asrwt>0</asrwt>
<pdfrwt beam="1">  1       21 0.21153302E-02 0.12500000E+03</pdfrwt>
<pdfrwt beam="2">  1       21 0.39935952E-01 0.12500000E+03</pdfrwt>
<totfact> 0.65585763E+06</totfact>
</mgrwt>
</event>
<event>
 6      0 +1.3698540e+00 1.25000000e+02 7.54677100e-03 1.12640300e-01
       21 -1    0    0  502  501 +0.0000000000e+00 +0.0000000000e+00 +9.3950310230e+01 9.3950310230e+01 0.0000000000e+00 0.0000e+00 -1.0000e+00
       21 -1    0    0  501  502 -0.0000000000e+00 -0.0000000000e+00 -4.1577829711e+01 4.1577829711e+01 0.0000000000e+00 0.0000e+00 -1.0000e+00
       25  2    1    2    0    0 +0.0000000000e+00 +0.0000000000e+00 +5.2372480519e+01 1.3552813994e+02 1.2500000000e+02 0.0000e+00 0.0000e+00
      -15  1    3    3    0    0 +1.0538444648e+01 -1.1773572081e-01 -1.7036739244e+01 2.0111710279e+01 1.7770000000e+00 0.0000e+00 -1.0000e+00
       15  1    3    3    0    0 +4.0378162147e+00 -5.3090296192e+00 -2.1812280676e+01 2.2878441219e+01 1.7770000000e+00 0.0000e+00 -1.0000e+00
       22  1    3    3    0    0 -1.4576260863e+01 +5.4267653400e+00 +9.1221500439e+01 9.2537988443e+01 0.0000000000e+00 0.0000e+00 -1.0000e+00
<mgrwt>
<rscale>  2 0.12500000E+03</rscale>
<asrwt>0</asrwt>
<pdfrwt beam="1">  1       21 0.13816222E-01 0.12500000E+03</pdfrwt>
<pdfrwt beam="2">  1       21 0.61143867E-02 0.12500000E+03</pdfrwt>
<totfact> 0.87113662E+06</totfact>
</mgrwt>
</event>
<event>
 6      0 +1.3698540e+00 1.25000000e+02 7.54677100e-03 1.12640300e-01
       21 -1    0    0  502  501 +0.0000000000e+00 +0.0000000000e+00 +1.1085041103e+02 1.1085041103e+02 0.0000000000e+00 0.0000e+00 1.0000e+00
       21 -1    0    0  501  502 -0.0000000000e+00 -0.0000000000e+00 -3.5238931129e+01 3.5238931129e+01 0.0000000000e+00 0.0000e+00 1.0000e+00
       25  2    1    2    0    0 +0.0000000000e+00 +0.0000000000e+00 +7.5611479902e+01 1.4608934216e+02 1.2500000000e+02 0.0000e+00 0.0000e+00
      -15  1    3    3    0    0 +3.0120203973e+01 +4.6378139981e+01 +3.8352910372e+00 5.5461930563e+01 1.7770000000e+00 0.0000e+00 1.0000e+00
       15  1    3    3    0    0 -2.9498358284e+01 -4.5410344494e+01 +7.0201033338e+01 8.8676915481e+01 1.7770000000e+00 0.0000e+00 1.0000e+00
       22  1    3    3    0    0 -6.2184568901e-01 -9.6779548722e-01 +1.5751555275e+00 1.9504961169e+00 0.0000000000e+00 0.0000e+00 -1.0000e+00
<mgrwt>
<rscale>  2 0.12500000E+03</rscale>
<asrwt>0</asrwt>
<pdfrwt beam="1">  1       21 0.16301531E-01 0.12500000E+03</pdfrwt>
<pdfrwt beam="2">  1       21 0.51821958E-02 0.12500000E+03</pdfrwt>
<totfact> 0.85287474E+06</totfact>
</mgrwt>
</event>
<event>
 6      0 +1.3698540e+00 1.25000000e+02 7.54677100e-03 1.12640300e-01
       21 -1    0    0  502  501 +0.0000000000e+00 +0.0000000000e+00 +1.0507015201e+02 1.0507015201e+02 0.0000000000e+00 0.0000e+00 -1.0000e+00
       21 -1    0    0  501  502 -0.0000000000e+00 -0.0000000000e+00 -3.7177542104e+01 3.7177542104e+01 0.0000000000e+00 0.0000e+00 -1.0000e+00
       25  2    1    2    0    0 +0.0000000000e+00 +0.0000000000e+00 +6.7892609902e+01 1.4224769411e+02 1.2500000000e+02 0.0000e+00 0.0000e+00
      -15  1    3    3    0    0 +2.7809112760e+00 +2.4739688160e+01 -9.8604384845e+00 2.6836013376e+01 1.7770000000e+00 0.0000e+00 -1.0000e+00
       15  1    3    3    0    0 -2.1646997212e+01 +2.4146568915e+01 +3.5344309893e+01 4.8000283848e+01 1.7770000000e+00 0.0000e+00 -1.0000e+00
       22  1    3    3    0    0 +1.8866085936e+01 -4.8886257075e+01 +4.2408738492e+01 6.7411396884e+01 0.0000000000e+00 0.0000e+00 -1.0000e+00
<mgrwt>
<rscale>  2 0.12500000E+03</rscale>
<asrwt>0</asrwt>
<pdfrwt beam="1">  1       21 0.15451493E-01 0.12500000E+03</pdfrwt>
<pdfrwt beam="2">  1       21 0.54672856E-02 0.12500000E+03</pdfrwt>
<totfact> 0.85950865E+06</totfact>
</mgrwt>
</event>
<event>
 6      0 +1.3698540e+00 1.25000000e+02 7.54677100e-03 1.12640300e-01
       21 -1    0    0  502  501 +0.0000000000e+00 +0.0000000000e+00 +4.4308332874e+00 4.4308332874e+00 0.0000000000e+00 0.0000e+00 -1.0000e+00
       21 -1    0    0  501  502 -0.0000000000e+00 -0.0000000000e+00 -8.8160617803e+02 8.8160617803e+02 0.0000000000e+00 0.0000e+00 -1.0000e+00
       25  2    1    2    0    0 +0.0000000000e+00 +0.0000000000e+00 -8.7717534474e+02 8.8603701132e+02 1.2500000000e+02 0.0000e+00 0.0000e+00
      -15  1    3    3    0    0 -5.8895398482e+01 +1.9880952760e+01 -4.8294241793e+02 4.8692962224e+02 1.7770000000e+00 0.0000e+00 1.0000e+00
       15  1    3    3    0    0 +5.8895407798e+01 -1.9881046247e+01 -3.9423279007e+02 3.9910722313e+02 1.7770000000e+00 0.0000e+00 1.0000e+00
       22  1    3    3    0    0 -9.3156955192e-06 +9.3487739652e-05 -1.3647520158e-04 1.6568711565e-04 0.0000000000e+00 0.0000e+00 -1.0000e+00
<mgrwt>
<rscale>  2 0.12500000E+03</rscale>
<asrwt>0</asrwt>
<pdfrwt beam="1">  1       21 0.65159319E-03 0.12500000E+03</pdfrwt>
<pdfrwt beam="2">  1       21 0.12964796E+00 0.12500000E+03</pdfrwt>
<totfact> 0.24927949E+06</totfact>
</mgrwt>
</event>
<event>
 6      0 +1.3698540e+00 1.25000000e+02 7.54677100e-03 1.12640300e-01
       21 -1    0    0  502  501 +0.0000000000e+00 +0.0000000000e+00 +1.3022484015e+02 1.3022484015e+02 0.0000000000e+00 0.0000e+00 -1.0000e+00
       21 -1    0    0  501  502 -0.0000000000e+00 -0.0000000000e+00 -2.9996197311e+01 2.9996197311e+01 0.0000000000e+00 0.0000e+00 -1.0000e+00
       25  2    1    2    0    0 +0.0000000000e+00 +0.0000000000e+00 +1.0022864284e+02 1.6022103746e+02 1.2500000000e+02 0.0000e+00 0.0000e+00
      -15  1    3    3    0    0 +5.4101547676e+01 -3.0352576145e+01 +5.9148457547e+01 8.5731873296e+01 1.7770000000e+00 0.0000e+00 -1.0000e+00
       15  1    3    3    0    0 -5.4116949224e+01 +3.0393212909e+01 +4.1040526342e+01 7.4430330616e+01 1.7770000000e+00 0.0000e+00 -1.0000e+00
       22  1    3    3    0    0 +1.5401547490e-02 -4.0636764372e-02 +3.9658954617e-02 5.8833553054e-02 0.0000000000e+00 0.0000e+00 -1.0000e+00
<mgrwt>
<rscale>  2 0.12500000E+03</rscale>
<asrwt>0</asrwt>
<pdfrwt beam="1">  1       21 0.19150712E-01 0.12500000E+03</pdfrwt>
<pdfrwt beam="2">  1       21 0.44112055E-02 0.12500000E+03</pdfrwt>
<totfact> 0.82942677E+06</totfact>
</mgrwt>
</event>
<event>
 6      0 +1.3698540e+00 1.25000000e+02 7.54677100e-03 1.12640300e-01
       21 -1    0    0  502  501 +0.0000000000e+00 +0.0000000000e+00 +3.5822159966e+02 3.5822159966e+02 0.0000000000e+00 0.0000e+00 -1.0000e+00
       21 -1    0    0  501  502 -0.0000000000e+00 -0.0000000000e+00 -1.0904562996e+01 1.0904562996e+01 0.0000000000e+00 0.0000e+00 -1.0000e+00
       25  2    1    2    0    0 +0.0000000000e+00 +0.0000000000e+00 +3.4731703667e+02 3.6912616266e+02 1.2500000000e+02 0.0000e+00 0.0000e+00
      -15  1    3    3    0    0 +2.7576262120e+01 -1.1584262134e+01 +1.5833555061e+02 1.6114574049e+02 1.7770000000e+00 0.0000e+00 -1.0000e+00
       15  1    3    3    0    0 -7.9399010932e+00 -2.7461825142e+01 +1.3748766131e+02 1.4043934139e+02 1.7770000000e+00 0.0000e+00 -1.0000e+00
       22  1    3    3    0    0 -1.9636361027e+01 +3.9046087276e+01 +5.1493824765e+01 6.7541080794e+01 0.0000000000e+00 0.0000e+00 -1.0000e+00
<mgrwt>
<rscale>  2 0.12500000E+03</rscale>
<asrwt>0</asrwt>
<pdfrwt beam="1">  1       21 0.52679639E-01 0.12500000E+03</pdfrwt>
<pdfrwt beam="2">  1       21 0.16036124E-02 0.12500000E+03</pdfrwt>
<totfact> 0.56606328E+06</totfact>
</mgrwt>
</event>
<event>
 6      0 +1.3698540e+00 1.25000000e+02 7.54677100e-03 1.12640300e-01
       21 -1    0    0  502  501 +0.0000000000e+00 +0.0000000000e+00 +2.3394180136e+02 2.3394180136e+02 0.0000000000e+00 0.0000e+00 -1.0000e+00
       21 -1    0    0  501  502 -0.0000000000e+00 -0.0000000000e+00 -1.6697528946e+01 1.6697528946e+01 0.0000000000e+00 0.0000e+00 -1.0000e+00
       25  2    1    2    0    0 +0.0000000000e+00 +0.0000000000e+00 +2.1724427242e+02 2.5063933031e+02 1.2500000000e+02 0.0000e+00 0.0000e+00
      -15  1    3    3    0    0 -1.6533770673e+01 -5.7184708816e+01 +9.3811973940e+01 1.1111840837e+02 1.7770000000e+00 0.0000e+00 -1.0000e+00
       15  1    3    3    0    0 +1.7415926601e+01 +5.9763423552e+01 +1.1919799926e+02 1.3448532281e+02 1.7770000000e+00 0.0000e+00 -1.0000e+00
       22  1    3    3    0    0 -8.8215592782e-01 -2.5787147361e+00 +4.2342992224e+00 5.0355991377e+00 0.0000000000e+00 0.0000e+00 1.0000e+00
<mgrwt>
<rscale>  2 0.12500000E+03</rscale>
<asrwt>0</asrwt>
<pdfrwt beam="1">  1       21 0.34403204E-01 0.12500000E+03</pdfrwt>
<pdfrwt beam="2">  1       21 0.24555191E-02 0.12500000E+03</pdfrwt>
<totfact> 0.69921037E+06</totfact>
</mgrwt>
</event>
<event>
 6      0 +1.3698540e+00 1.25000000e+02 7.54677100e-03 1.12640300e-01
       21 -1    0    0  502  501 +0.0000000000e+00 +0.0000000000e+00 +6.6439646019e+02 6.6439646019e+02 0.0000000000e+00 0.0000e+00 1.0000e+00
       21 -1    0    0  501  502 -0.0000000000e+00 -0.0000000000e+00 -5.8793961649e+00 5.8793961649e+00 0.0000000000e+00 0.0000e+00 1.0000e+00
       25  2    1    2    0    0 +0.0000000000e+00 +0.0000000000e+00 +6.5851706402e+02 6.7027585635e+02 1.2500000000e+02 0.0000e+00 0.0000e+00
      -15  1    3    3    0    0 +1.3856016952e+01 +4.3524389309e+01 +5.5781249815e+02 5.5968232284e+02 1.7770000000e+00 0.0000e+00 1.0000e+00
       15  1    3    3    0    0 -1.3856015746e+01 -4.3524392040e+01 +1.0070456462e+02 1.1059353027e+02 1.7770000000e+00 0.0000e+00 1.0000e+00
       22  1    3    3    0    0 -1.2069098314e-06 +2.7312678970e-06 +1.2459712271e-06 3.2355679498e-06 0.0000000000e+00 0.0000e+00 1.0000e+00
<mgrwt>
<rscale>  2 0.12500000E+03</rscale>
<asrwt>0</asrwt>
<pdfrwt beam="1">  1       21 0.97705310E-01 0.12500000E+03</pdfrwt>
<pdfrwt beam="2">  1       21 0.86461754E-03 0.12500000E+03</pdfrwt>
<totfact> 0.34460821E+06</totfact>
</mgrwt>
</event>
<event>
 6      0 +1.3698540e+00 1.25000000e+02 7.54677100e-03 1.12640300e-01
       21 -1    0    0  502  501 +0.0000000000e+00 +0.0000000000e+00 +9.2356265256e+00 9.2356265256e+00 0.0000000000e+00 0.0000e+00 1.0000e+00
       21 -1    0    0  501  502 -0.0000000000e+00 -0.0000000000e+00 -4.2295452173e+02 4.2295452173e+02 0.0000000000e+00 0.0000e+00 1.0000e+00
       25  2    1    2    0    0 +0.0000000000e+00 +0.0000000000e+00 -4.1371889520e+02 4.3219014825e+02 1.2500000000e+02 0.0000e+00 0.0000e+00
      -15  1    3    3    0    0 +2.0597465639e+01 +4.8206396685e+01 -3.2432375415e+02 3.2853792400e+02 1.7770000000e+00 0.0000e+00 -1.0000e+00
       15  1    3    3    0    0 -2.0561386536e+01 -4.8019569590e+01 -8.8972518617e+01 1.0318874201e+02 1.7770000000e+00 0.0000e+00 -1.0000e+00
       22  1    3    3    0    0 -3.6079102476e-02 -1.8682709578e-01 -4.2262244975e-01 4.6348225467e-01 0.0000000000e+00 0.0000e+00 -1.0000e+00
<mgrwt>
<rscale>  2 0.12500000E+03</rscale>
<asrwt>0</asrwt>
<pdfrwt beam="1">  1       21 0.13581807E-02 0.12500000E+03</pdfrwt>
<pdfrwt beam="2">  1       21 0.62199179E-01 0.12500000E+03</pdfrwt>
<totfact> 0.50783298E+06</totfact>
</mgrwt>
</event>
<event>
 6      0 +1.3698540e+00 1.25000000e+02 7.54677100e-03 1.12640300e-01
       21 -1    0    0  502  501 +0.0000000000e+00 +0.0000000000e+00 +2.3674055272e+01 2.3674055272e+01 0.0000000000e+00 0.0000e+00 1.0000e+00
       21 -1    0    0  501  502 -0.0000000000e+00 -0.0000000000e+00 -1.6500130439e+02 1.6500130439e+02 0.0000000000e+00 0.0000e+00 1.0000e+00
       25  2    1    2    0    0 +0.0000000000e+00 +0.0000000000e+00 -1.4132724911e+02 1.8867535966e+02 1.2500000000e+02 0.0000e+00 0.0000e+00
      -15  1    3    3    0    0 -6.8551553876e+00 +4.0240483218e+01 -8.0194224374e+01 9.0003116596e+01 1.7770000000e+00 0.0000e+00 -1.0000e+00
       15  1    3    3    0    0 -5.1977366117e+00 -4.2263829837e+01 -7.1104427748e+01 8.2899005741e+01 1.7770000000e+00 0.0000e+00 -1.0000e+00
       22  1    3    3    0    0 +1.2052891999e+01 +2.0233466198e+00 +9.9714030213e+00 1.5773237312e+01 0.0000000000e+00 0.0000e+00 -1.0000e+00
<mgrwt>
<rscale>  2 0.12500000E+03</rscale>
<asrwt>0</asrwt>
<pdfrwt beam="1">  1       21 0.34814788E-02 0.12500000E+03</pdfrwt>
<pdfrwt beam="2">  1       21 0.24264897E-01 0.12500000E+03</pdfrwt>
<totfact> 0.78495499E+06</totfact>
</mgrwt>
</event>
<event>
 6      0 +1.3698540e+00 1.25000000e+02 7.54677100e-03 1.12640300e-01
       21 -1    0    0  502  501 +0.0000000000e+00 +0.0000000000e+00 +7.8002258636e+00 7.8002258636e+00 0.0000000000e+00 0.0000e+00 1.0000e+00
       21 -1    0    0  501  502 -0.0000000000e+00 -0.0000000000e+00 -5.0078678083e+02 5.0078678083e+02 0.0000000000e+00 0.0000e+00 1.0000e+00
       25  2    1    2    0    0 +0.0000000000e+00 +0.0000000000e+00 -4.9298655497e+02 5.0858700670e+02 1.2500000000e+02 0.0000e+00 0.0000e+00
      -15  1    3    3    0    0 -3.6702485467e+01 +5.0799841223e-01 -4.7717957341e+01 6.0228661645e+01 1.7770000000e+00 0.0000e+00 -1.0000e+00
       15  1    3    3    0    0 +3.9681559565e+01 -4.2138908889e+00 -4.3698703333e+02 4.3880885141e+02 1.7770000000e+00 0.0000e+00 -1.0000e+00
       22  1    3    3    0    0 -2.9790740980e+00 +3.7058924767e+00 -8.2815642514e+00 9.5494935981e+00 0.0000000000e+00 0.0000e+00 -1.0000e+00
<mgrwt>
<rscale>  2 0.12500000E+03</rscale>
<asrwt>0</asrwt>
<pdfrwt beam="1">  1       21 0.11470919E-02 0.12500000E+03</pdfrwt>
<pdfrwt beam="2">  1       21 0.73645126E-01 0.12500000E+03</pdfrwt>
<totfact> 0.44693394E+06</totfact>
</mgrwt>
</event>
<event>
 6      0 +1.3698540e+00 1.25000000e+02 7.54677100e-03 1.12640300e-01
       21 -1    0    0  502  501 +0.0000000000e+00 +0.0000000000e+00 +1.3488413982e+02 1.3488413982e+02 0.0000000000e+00 0.0000e+00 -1.0000e+00
       21 -1    0    0  501  502 -0.0000000000e+00 -0.0000000000e+00 -2.8960039372e+01 2.8960039372e+01 0.0000000000e+00 0.0000e+00 -1.0000e+00
       25  2    1    2    0    0 +0.0000000000e+00 +0.0000000000e+00 +1.0592410045e+02 1.6384417920e+02 1.2500000000e+02 0.0000e+00 0.0000e+00
      -15  1    3    3    0    0 -2.4057072007e+00 +2.4397872992e+01 -4.8710105056e+00 2.5058493690e+01 1.7770000000e+00 0.0000e+00 -1.0000e+00
       15  1    3    3    0    0 +1.2287591962e+01 -2.1311974924e+00 -9.6709213518e+00 1.5881163929e+01 1.7770000000e+00 0.0000e+00 -1.0000e+00
       22  1    3    3    0    0 -9.8818847608e+00 -2.2266675500e+01 +1.2046603230e+02 1.2290452157e+02 0.0000000000e+00 0.0000e+00 -1.0000e+00
<mgrwt>
<rscale>  2 0.12500000E+03</rscale>
<asrwt>0</asrwt>
<pdfrwt beam="1">  1       21 0.19835903E-01 0.12500000E+03</pdfrwt>
<pdfrwt beam="2">  1       21 0.42588294E-02 0.12500000E+03</pdfrwt>
<totfact> 0.82353743E+06</totfact>
</mgrwt>
</event>
<event>
 6      0 +1.3698540e+00 1.25000000e+02 7.54677100e-03 1.12640300e-01
       21 -1    0    0  502  501 +0.0000000000e+00 +0.0000000000e+00 +4.5325401230e+02 4.5325401230e+02 0.0000000000e+00 0.0000e+00 -1.0000e+00
       21 -1    0    0  501  502 -0.0000000000e+00 -0.0000000000e+00 -8.6182358986e+00 8.6182358986e+00 0.0000000000e+00 0.0000e+00 -1.0000e+00
       25  2    1    2    0    0 +0.0000000000e+00 +0.0000000000e+00 +4.4463577640e+02 4.6187224820e+02 1.2500000000e+02 0.0000e+00 0.0000e+00
      -15  1    3    3    0    0 -9.9971355332e+00 +4.3529141567e+01 +1.8955319661e+02 1.9475189590e+02 1.7770000000e+00 0.0000e+00 -1.0000e+00
       15  1    3    3    0    0 +3.5337637498e+01 -1.6265259554e+01 +1.6729918456e+02 1.7177159886e+02 1.7770000000e+00 0.0000e+00 -1.0000e+00
       22  1    3    3    0    0 -2.5340501965e+01 -2.7263882013e+01 +8.7783395192e+01 9.5348753393e+01 0.0000000000e+00 0.0000e+00 -1.0000e+00
<mgrwt>
<rscale>  2 0.12500000E+03</rscale>
<asrwt>0</asrwt>
<pdfrwt beam="1">  1       21 0.66654986E-01 0.12500000E+03</pdfrwt>
<pdfrwt beam="2">  1       21 0.12673879E-02 0.12500000E+03</pdfrwt>
<totfact> 0.48299589E+06</totfact>
</mgrwt>
</event>
<event>
 6      0 +1.3698540e+00 1.25000000e+02 7.54677100e-03 1.12640300e-01
       21 -1    0    0  502  501 +0.0000000000e+00 +0.0000000000e+00 +2.5424537514e+01 2.5424537514e+01 0.0000000000e+00 0.0000e+00 -1.0000e+00
       21 -1    0    0  501  502 -0.0000000000e+00 -0.0000000000e+00 -1.5364094618e+02 1.5364094618e+02 0.0000000000e+00 0.0000e+00 -1.0000e+00
       25  2    1    2    0    0 +0.0000000000e+00 +0.0000000000e+00 -1.2821640867e+02 1.7906548370e+02 1.2500000000e+02 0.0000e+00 0.0000e+00
      -15  1    3    3    0    0 +1.7700023057e+01 +1.0382924098e+01 +7.5494122597e+00 2.1937349053e+01 1.7770000000e+00 0.0000e+00 -1.0000e+00
       15  1    3    3    0    0 +2.4021843036e+01 -2.1947901621e+01 -8.1045397739e+01 8.7351437035e+01 1.7770000000e+00 0.0000e+00 -1.0000e+00
       22  1    3    3    0    0 -4.1721866092e+01 +1.1564977523e+01 -5.4720423188e+01 6.9776697609e+01 0.0000000000e+00 0.0000e+00 -1.0000e+00
<mgrwt>
<rscale>  2 0.12500000E+03</rscale>
<asrwt>0</asrwt>
<pdfrwt beam="1">  1       21 0.37389026E-02 0.12500000E+03</pdfrwt>
<pdfrwt beam="2">  1       21 0.22594257E-01 0.12500000E+03</pdfrwt>
<totfact> 0.79949640E+06</totfact>
</mgrwt>
</event>
<event>
 6      0 +1.3698540e+00 1.25000000e+02 7.54677100e-03 1.12640300e-01
       21 -1    0    0  502  501 +0.0000000000e+00 +0.0000000000e+00 +7.1659855617e+01 7.1659855617e+01 0.0000000000e+00 0.0000e+00 -1.0000e+00
       21 -1    0    0  501  502 -0.0000000000e+00 -0.0000000000e+00 -5.4510994564e+01 5.4510994564e+01 0.0000000000e+00 0.0000e+00 -1.0000e+00
       25  2    1    2    0    0 +0.0000000000e+00 +0.0000000000e+00 +1.7148861053e+01 1.2617085018e+02 1.2500000000e+02 0.0000e+00 0.0000e+00
      -15  1    3    3    0    0 +3.6742917504e+01 -5.0367541304e+00 -3.8206396631e+00 3.7325137580e+01 1.7770000000e+00 0.0000e+00 -1.0000e+00
       15  1    3    3    0    0 -1.6473305526e+01 +7.9539157467e+00 +5.0027457988e+01 5.3296705831e+01 1.7770000000e+00 0.0000e+00 -1.0000e+00
       22  1    3    3    0    0 -2.0269611977e+01 -2.9171616162e+00 -2.9057957272e+01 3.5549006771e+01 0.0000000000e+00 0.0000e+00 -1.0000e+00
<mgrwt>
<rscale>  2 0.12500000E+03</rscale>
<asrwt>0</asrwt>
<pdfrwt beam="1">  1       21 0.10538214E-01 0.12500000E+03</pdfrwt>
<pdfrwt beam="2">  1       21 0.80163227E-02 0.12500000E+03</pdfrwt>
<totfact> 0.88780966E+06</totfact>
</mgrwt>
</event>
<event>
 6      0 +1.3698540e+00 1.25000000e+02 7.54677100e-03 1.12640300e-01
       21 -1    0    0  502  501 +0.0000000000e+00 +0.0000000000e+00 +2.3925666945e+01 2.3925666945e+01 0.0000000000e+00 0.0000e+00 1.0000e+00
       21 -1    0    0  501  502 -0.0000000000e+00 -0.0000000000e+00 -1.6326608613e+02 1.6326608613e+02 0.0000000000e+00 0.0000e+00 1.0000e+00
       25  2    1    2    0    0 +0.0000000000e+00 +0.0000000000e+00 -1.3934041918e+02 1.8719175307e+02 1.2500000000e+02 0.0000e+00 0.0000e+00
      -15  1    3    3    0    0 +5.8939181755e+01 +2.0470278942e+01 -6.4880164598e+01 9.0030289088e+01 1.7770000000e+00 0.0000e+00 -1.0000e+00
       15  1    3    3    0    0 -5.8938977842e+01 -2.0470265068e+01 -7.4460130418e+01 9.7161224837e+01 1.7770000000e+00 0.0000e+00 -1.0000e+00
       22  1    3    3    0    0 -2.0391326448e-04 -1.3874438985e-05 -1.2416200789e-04 2.3914289387e-04 0.0000000000e+00 0.0000e+00 -1.0000e+00
<mgrwt>
<rscale>  2 0.12500000E+03</rscale>
<asrwt>0</asrwt>
<pdfrwt beam="1">  1       21 0.35184805E-02 0.12500000E+03</pdfrwt>
<pdfrwt beam="2">  1       21 0.24009718E-01 0.12500000E+03</pdfrwt>
<totfact> 0.78717688E+06</totfact>
</mgrwt>
</event>
<event>
 6      0 +1.3698540e+00 1.25000000e+02 7.54677100e-03 1.12640300e-01
       21 -1    0    0  502  501 +0.0000000000e+00 +0.0000000000e+00 +4.8096255757e+01 4.8096255757e+01 0.0000000000e+00 0.0000e+00 1.0000e+00
       21 -1    0    0  501  502 -0.0000000000e+00 -0.0000000000e+00 -8.1217340904e+01 8.1217340904e+01 0.0000000000e+00 0.0000e+00 1.0000e+00
       25  2    1    2    0    0 +0.0000000000e+00 +0.0000000000e+00 -3.3121085148e+01 1.2931359666e+02 1.2500000000e+02 0.0000e+00 0.0000e+00
      -15  1    3    3    0    0 +6.0897264180e+00 +2.1857132921e+01 -5.9111405164e+01 6.3341415968e+01 1.7770000000e+00 0.0000e+00 -1.0000e+00
       15  1    3    3    0    0 +1.9233433051e+01 -1.5154708754e+01 -5.3490175344e+00 2.5126875292e+01 1.7770000000e+00 0.0000e+00 -1.0000e+00
       22  1    3    3    0    0 -2.5323159469e+01 -6.7024241670e+00 +3.1339337551e+01 4.0845305401e+01 0.0000000000e+00 0.0000e+00 -1.0000e+00
<mgrwt>
<rscale>  2 0.12500000E+03</rscale>
<asrwt>0</asrwt>
<pdfrwt beam="1">  1       21 0.70729789E-02 0.12500000E+03</pdfrwt>
<pdfrwt beam="2">  1       21 0.11943726E-01 0.12500000E+03</pdfrwt>
<totfact> 0.88222722E+06</totfact>
</mgrwt>
</event>
<event>
 6      0 +1.3698540e+00 1.25000000e+02 7.54677100e-03 1.12640300e-01
       21 -1    0    0  502  501 +0.0000000000e+00 +0.0000000000e+00 +1.4770130691e+01 1.4770130691e+01 0.0000000000e+00 0.0000e+00 -1.0000e+00
       21 -1    0    0  501  502 -0.0000000000e+00 -0.0000000000e+00 -2.6446956237e+02 2.6446956237e+02 0.0000000000e+00 0.0000e+00 -1.0000e+00
       25  2    1    2    0    0 +0.0000000000e+00 +0.0000000000e+00 -2.4969943168e+02 2.7923969306e+02 1.2500000000e+02 0.0000e+00 0.0000e+00
      -15  1    3    3    0    0 +2.0327109917e+01 -2.7463320727e+01 -2.0912112873e+01 4.0098623128e+01 1.7770000000e+00 0.0000e+00 -1.0000e+00
       15  1    3    3    0    0 +2.1108870824e+01 +1.2821426959e+01 -6.4882412755e+01 6.9446804323e+01 1.7770000000e+00 0.0000e+00 -1.0000e+00
       22  1    3    3    0    0 -4.1435980741e+01 +1.4641893768e+01 -1.6390490606e+02 1.6969426562e+02 0.0000000000e+00 0.0000e+00 -1.0000e+00
<mgrwt>
<rscale>  2 0.12500000E+03</rscale>
<asrwt>0</asrwt>
<pdfrwt beam="1">  1       21 0.21720781E-02 0.12500000E+03</pdfrwt>
<pdfrwt beam="2">  1       21 0.38892582E-01 0.12500000E+03</pdfrwt>
<totfact> 0.66382181E+06</totfact>
</mgrwt>
</event>
<event>
 6      0 +1.3698540e+00 1.25000000e+02 7.54677100e-03 1.12640300e-01
       21 -1    0    0  502  501 +0.0000000000e+00 +0.0000000000e+00 +4.9710616102e+02 4.9710616102e+02 0.0000000000e+00 0.0000e+00 1.0000e+00
       21 -1    0    0  501  502 -0.0000000000e+00 -0.0000000000e+00 -7.8579794546e+00 7.8579794546e+00 0.0000000000e+00 0.0000e+00 1.0000e+00
       25  2    1    2    0    0 +0.0000000000e+00 +0.0000000000e+00 +4.8924818156e+02 5.0496414047e+02 1.2500000000e+02 0.0000e+00 0.0000e+00
      -15  1    3    3    0    0 -3.9657380805e+01 -1.0055433720e+00 +2.1811577463e+02 2.2170107767e+02 1.7770000000e+00 0.0000e+00 -1.0000e+00
       15  1    3    3    0    0 +2.5194423937e+01 -1.8730385896e+01 +2.4666269245e+02 2.4865885854e+02 1.7770000000e+00 0.0000e+00 -1.0000e+00
       22  1    3    3    0    0 +1.4462956868e+01 +1.9735929268e+01 +2.4469714467e+01 3.4604204246e+01 0.0000000000e+00 0.0000e+00 -1.0000e+00
<mgrwt>
<rscale>  2 0.12500000E+03</rscale>
<asrwt>0</asrwt>
<pdfrwt beam="1">  1       21 0.73103825E-01 0.12500000E+03</pdfrwt>
<pdfrwt beam="2">  1       21 0.11555856E-02 0.12500000E+03</pdfrwt>
<totfact> 0.44958732E+06</totfact>
</mgrwt>
</event>
<event>
 6      0 +1.3698540e+00 1.25000000e+02 7.54677100e-03 1.12640300e-01
       21 -1    0    0  502  501 +0.0000000000e+00 +0.0000000000e+00 +2.8206960818e+01 2.8206960818e+01 0.0000000000e+00 0.0000e+00 -1.0000e+00
       21 -1    0    0  501  502 -0.0000000000e+00 -0.0000000000e+00 -1.3848532017e+02 1.3848532017e+02 0.0000000000e+00 0.0000e+00 -1.0000e+00
       25  2    1    2    0    0 +0.0000000000e+00 +0.0000000000e+00 -1.1027835936e+02 1.6669228099e+02 1.2500000000e+02 0.0000e+00 0.0000e+00
      -15  1    3    3    0    0 -4.0328712766e+01 -4.7089366130e+01 -6.5406367382e+01 9.0138582743e+01 1.7770000000e+00 0.0000e+00 -1.0000e+00
       15  1    3    3    0    0 +4.0328700700e+01 +4.7089357047e+01 -4.4871939080e+01 7.6553643239e+01 1.7770000000e+00 0.0000e+00 -1.0000e+00
       22  1    3    3    0    0 +1.2065515608e-05 +9.0820968388e-06 -5.2902798361e-05 5.5016063330e-05 0.0000000000e+00 0.0000e+00 1.0000e+00
<mgrwt>
<rscale>  2 0.12500000E+03</rscale>
<asrwt>0</asrwt>
<pdfrwt beam="1">  1       21 0.41480825E-02 0.12500000E+03</pdfrwt>
<pdfrwt beam="2">  1       21 0.20365488E-01 0.12500000E+03</pdfrwt>
<totfact> 0.81892868E+06</totfact>
</mgrwt>
</event>
<event>
 6      0 +1.3698540e+00 1.25000000e+02 7.54677100e-03 1.12640300e-01
       21 -1    0    0  502  501 +0.0000000000e+00 +0.0000000000e+00 +1.3156717159e+01 1.3156717159e+01 0.0000000000e+00 0.0000e+00 -1.0000e+00
       21 -1    0    0  501  502 -0.0000000000e+00 -0.0000000000e+00 -2.9690157148e+02 2.9690157148e+02 0.0000000000e+00 0.0000e+00 -1.0000e+00
       25  2    1    2    0    0 +0.0000000000e+00 +0.0000000000e+00 -2.8374485432e+02 3.1005828864e+02 1.2500000000e+02 0.0000e+00 0.0000e+00
      -15  1    3    3    0    0 +4.6218588599e+01 +3.8907936944e+01 -1.0384549829e+02 1.2015419565e+02 1.7770000000e+00 0.0000e+00 1.0000e+00
       15  1    3    3    0    0 -4.5705312593e+01 -3.9114867331e+01 -1.7901351380e+02 1.8885958884e+02 1.7770000000e+00 0.0000e+00 1.0000e+00
       22  1    3    3    0    0 -5.1327600631e-01 +2.0693038775e-01 -8.8584222517e-01 1.0445041369e+00 0.0000000000e+00 0.0000e+00 1.0000e+00
<mgrwt>
<rscale>  2 0.12500000E+03</rscale>
<asrwt>0</asrwt>
<pdfrwt beam="1">  1       21 0.19348113E-02 0.12500000E+03</pdfrwt>
<pdfrwt beam="2">  1       21 0.43661997E-01 0.12500000E+03</pdfrwt>
<totfact> 0.62808251E+06</totfact>
</mgrwt>
</event>
<event>
 6      0 +1.3698540e+00 1.25000000e+02 7.54677100e-03 1.12640300e-01
       21 -1    0    0  502  501 +0.0000000000e+00 +0.0000000000e+00 +6.1067682841e+01 6.1067682841e+01 0.0000000000e+00 0.0000e+00 1.0000e+00
       21 -1    0    0  501  502 -0.0000000000e+00 -0.0000000000e+00 -6.3965911564e+01 6.3965911564e+01 0.0000000000e+00 0.0000e+00 1.0000e+00
       25  2    1    2    0    0 +0.0000000000e+00 +0.0000000000e+00 -2.8982287228e+00 1.2503359440e+02 1.2500000000e+02 0.0000e+00 0.0000e+00
      -15  1    3    3    0    0 +1.7496395312e+01 +1.9018913538e+01 -2.7752469486e+01 3.7963142818e+01 1.7770000000e+00 0.0000e+00 -1.0000e+00
       15  1    3    3    0    0 +7.1649704145e-02 +2.1891653430e+01 -1.5578781208e+01 2.6927788184e+01 1.7770000000e+00 0.0000e+00 -1.0000e+00
       22  1    3    3    0    0 -1.7568045016e+01 -4.0910566968e+01 +4.0433021971e+01 6.0142663402e+01 0.0000000000e+00 0.0000e+00 -1.0000e+00
<mgrwt>
<rscale>  2 0.12500000E+03</rscale>
<asrwt>0</asrwt>
<pdfrwt beam="1">  1       21 0.89805416E-02 0.12500000E+03</pdfrwt>
<pdfrwt beam="2">  1       21 0.94067516E-02 0.12500000E+03</pdfrwt>
<totfact> 0.88995143E+06</totfact>
</mgrwt>
</event>
<event>
 6      0 +1.3698540e+00 1.25000000e+02 7.54677100e-03 1.12640300e-01
       21 -1    0    0  502  501 +0.0000000000e+00 +0.0000000000e+00 +1.1791000646e+01 1.1791000646e+01 0.0000000000e+00 0.0000e+00 1.0000e+00
       21 -1    0    0  501  502 -0.0000000000e+00 -0.0000000000e+00 -3.3129079689e+02 3.3129079689e+02 0.0000000000e+00 0.0000e+00 1.0000e+00
       25  2    1    2    0    0 +0.0000000000e+00 +0.0000000000e+00 -3.1949979625e+02 3.4308179754e+02 1.2500000000e+02 0.0000e+00 0.0000e+00
      -15  1    3    3    0    0 +1.2719374049e+01 -1.1668679145e+01 -9.9145263107e+01 1.0065228003e+02 1.7770000000e+00 0.0000e+00 -1.0000e+00
       15  1    3    3    0    0 -1.5757001548e+00 -1.7822933227e+01 -2.0766956518e+02 2.0844650587e+02 1.7770000000e+00 0.0000e+00 -1.0000e+00
       22  1    3    3    0    0 -1.1143673894e+01 +2.9491612372e+01 -1.2684967969e+01 3.3983011646e+01 0.0000000000e+00 0.0000e+00 -1.0000e+00
<mgrwt>
<rscale>  2 0.12500000E+03</rscale>
<asrwt>0</asrwt>
<pdfrwt beam="1">  1       21 0.17339708E-02 0.12500000E+03</pdfrwt>
<pdfrwt beam="2">  1       21 0.48719232E-01 0.12500000E+03</pdfrwt>
<totfact> 0.59242987E+06</totfact>
</mgrwt>
</event>
<event>
 6      0 +1.3698540e+00 1.25000000e+02 7.54677100e-03 1.12640300e-01
       21 -1    0    0  502  501 +0.0000000000e+00 +0.0000000000e+00 +5.6630801953e+01 5.6630801953e+01 0.0000000000e+00 0.0000e+00 1.0000e+00
       21 -1    0    0  501  502 -0.0000000000e+00 -0.0000000000e+00 -6.8977479839e+01 6.8977479839e+01 0.0000000000e+00 0.0000e+00 1.0000e+00
       25  2    1    2    0    0 +0.0000000000e+00 +0.0000000000e+00 -1.2346677887e+01 1.2560828179e+02 1.2500000000e+02 0.0000e+00 0.0000e+00
      -15  1    3    3    0    0 -9.1830262626e+00 +3.1924806863e+01 +3.2154282145e+01 4.6266368496e+01 1.7770000000e+00 0.0000e+00 -1.0000e+00
       15  1    3    3    0    0 -7.3108054919e+00 +1.2711699753e+01 -8.9606444634e-01 1.4798508305e+01 1.7770000000e+00 0.0000e+00 -1.0000e+00
       22  1    3    3    0    0 +1.6493831754e+01 -4.4636506616e+01 -4.3604895586e+01 6.4543404991e+01 0.0000000000e+00 0.0000e+00 -1.0000e+00
<mgrwt>
<rscale>  2 0.12500000E+03</rscale>
<asrwt>0</asrwt>
<pdfrwt beam="1">  1       21 0.83280592E-02 0.12500000E+03</pdfrwt>
<pdfrwt beam="2">  1       21 0.10143747E-01 0.12500000E+03</pdfrwt>
<totfact> 0.88883314E+06</totfact>
</mgrwt>
</event>
<event>
 6      0 +1.3698540e+00 1.25000000e+02 7.54677100e-03 1.12640300e-01
       21 -1    0    0  502  501 +0.0000000000e+00 +0.0000000000e+00 +4.7193519168e+01 4.7193519168e+01 0.0000000000e+00 0.0000e+00 1.0000e+00
       21 -1    0    0  501  502 -0.0000000000e+00 -0.0000000000e+00 -8.2770898819e+01 8.2770898819e+01 0.0000000000e+00 0.0000e+00 1.0000e+00
       25  2    1    2    0    0 +0.0000000000e+00 +0.0000000000e+00 -3.5577379651e+01 1.2996441799e+02 1.2500000000e+02 0.0000e+00 0.0000e+00
      -15  1    3    3    0    0 -3.5481878899e+01 +1.3411867608e+01 +8.3248696216e+00 3.8875482070e+01 1.7770000000e+00 0.0000e+00 -1.0000e+00
       15  1    3    3    0    0 -1.0610073199e+01 -1.3654394794e+01 +1.0089097036e+01 2.0098849681e+01 1.7770000000e+00 0.0000e+00 -1.0000e+00
       22  1    3    3    0    0 +4.6091952098e+01 +2.4252718591e-01 -5.3991346309e+01 7.0990086237e+01 0.0000000000e+00 0.0000e+00 -1.0000e+00
<mgrwt>
<rscale>  2 0.12500000E+03</rscale>
<asrwt>0</asrwt>
<pdfrwt beam="1">  1       21 0.69402234E-02 0.12500000E+03</pdfrwt>
<pdfrwt beam="2">  1       21 0.12172191E-01 0.12500000E+03</pdfrwt>
<totfact> 0.88104458E+06</totfact>
</mgrwt>
</event>
<event>
 6      0 +1.3698540e+00 1.25000000e+02 7.54677100e-03 1.12640300e-01
       21 -1    0    0  502  501 +0.0000000000e+00 +0.0000000000e+00 +1.2131365728e+02 1.2131365728e+02 0.0000000000e+00 0.0000e+00 1.0000e+00
       21 -1    0    0  501  502 -0.0000000000e+00 -0.0000000000e+00 -3.2199589787e+01 3.2199589787e+01 0.0000000000e+00 0.0000e+00 1.0000e+00
       25  2    1    2    0    0 +0.0000000000e+00 +0.0000000000e+00 +8.9114067492e+01 1.5351324707e+02 1.2500000000e+02 0.0000e+00 0.0000e+00
      -15  1    3    3    0    0 +1.0571628793e+01 +2.2628792902e+01 +2.7554577383e+01 3.7232164419e+01 1.7770000000e+00 0.0000e+00 -1.0000e+00
       15  1    3    3    0    0 -3.4252062993e+01 +1.6017410645e+01 +5.9983843552e+01 7.0929404899e+01 1.7770000000e+00 0.0000e+00 -1.0000e+00
       22  1    3    3    0    0 +2.3680434200e+01 -3.8646203546e+01 +1.5756465532e+00 4.5351677747e+01 0.0000000000e+00 0.0000e+00 -1.0000e+00
<mgrwt>
<rscale>  2 0.12500000E+03</rscale>
<asrwt>0</asrwt>
<pdfrwt beam="1">  1       21 0.17840244E-01 0.12500000E+03</pdfrwt>
<pdfrwt beam="2">  1       21 0.47352338E-02 0.12500000E+03</pdfrwt>
<totfact> 0.84040531E+06</totfact>
</mgrwt>
</event>
<event>
 6      0 +1.3698540e+00 1.25000000e+02 7.54677100e-03 1.12640300e-01
       21 -1    0    0  502  501 +0.0000000000e+00 +0.0000000000e+00 +1.0235643863e+03 1.0235643863e+03 0.0000000000e+00 0.0000e+00 -1.0000e+00
       21 -1    0    0  501  502 -0.0000000000e+00 -0.0000000000e+00 -3.8163207438e+00 3.8163207438e+00 0.0000000000e+00 0.0000e+00 -1.0000e+00
       25  2    1    2    0    0 +0.0000000000e+00 +0.0000000000e+00 +1.0197480655e+03 1.0273807070e+03 1.2500000000e+02 0.0000e+00 0.0000e+00
      -15  1    3    3    0    0 -1.6794584201e+01 -1.9380900918e+01 +6.0056153718e+01 6.5326692150e+01 1.7770000000e+00 0.0000e+00 -1.0000e+00
       15  1    3    3    0    0 -1.9773837704e+01 -8.1060051533e+00 +3.4030684981e+02 3.4098184957e+02 1.7770000000e+00 0.0000e+00 -1.0000e+00
       22  1    3    3    0    0 +3.6568421905e+01 +2.7486906072e+01 +6.1938506115e+02 6.2107216446e+02 0.0000000000e+00 0.0000e+00 -1.0000e+00
<mgrwt>
<rscale>  2 0.12500000E+03</rscale>
<asrwt>0</asrwt>
<pdfrwt beam="1">  1       21 0.15052398E+00 0.12500000E+03</pdfrwt>
<pdfrwt beam="2">  1       21 0.56122435E-03 0.12500000E+03</pdfrwt>
<totfact> 0.20375945E+06</totfact>
</mgrwt>
</event>
<event>
 6      0 +1.3698540e+00 1.25000000e+02 7.54677100e-03 1.12640300e-01
       21 -1    0    0  502  501 +0.0000000000e+00 +0.0000000000e+00 +1.1370516953e+03 1.1370516953e+03 0.0000000000e+00 0.0000e+00 -1.0000e+00
       21 -1    0    0  501  502 -0.0000000000e+00 -0.0000000000e+00 -3.4354198811e+00 3.4354198811e+00 0.0000000000e+00 0.0000e+00 -1.0000e+00
       25  2    1    2    0    0 +0.0000000000e+00 +0.0000000000e+00 +1.1336162755e+03 1.1404871152e+03 1.2500000000e+02 0.0000e+00 0.0000e+00
      -15  1    3    3    0    0 +1.5467284971e+01 -5.7716378803e+01 +4.0039392610e+02 4.0483190472e+02 1.7770000000e+00 0.0000e+00 1.0000e+00
       15  1    3    3    0    0 -1.5467285364e+01 +5.7716379135e+01 +7.3322234917e+02 7.3565521026e+02 1.7770000000e+00 0.0000e+00 1.0000e+00
       22  1    3    3    0    0 +3.9227210859e-07 -3.3205247181e-07 +5.3453170368e-06 5.3699674557e-06 0.0000000000e+00 0.0000e+00 1.0000e+00
<mgrwt>
<rscale>  2 0.12500000E+03</rscale>
<asrwt>0</asrwt>
<pdfrwt beam="1">  1       21 0.16721322E+00 0.12500000E+03</pdfrwt>
<pdfrwt beam="2">  1       21 0.50520960E-03 0.12500000E+03</pdfrwt>
<totfact> 0.17400068E+06</totfact>
</mgrwt>
</event>
<event>
 6      0 +1.3698540e+00 1.25000000e+02 7.54677100e-03 1.12640300e-01
       21 -1    0    0  502  501 +0.0000000000e+00 +0.0000000000e+00 +6.1686534597e+01 6.1686534597e+01 0.0000000000e+00 0.0000e+00 1.0000e+00
       21 -1    0    0  501  502 -0.0000000000e+00 -0.0000000000e+00 -6.3324192638e+01 6.3324192638e+01 0.0000000000e+00 0.0000e+00 1.0000e+00
       25  2    1    2    0    0 +0.0000000000e+00 +0.0000000000e+00 -1.6376580411e+00 1.2501072724e+02 1.2500000000e+02 0.0000e+00 0.0000e+00
      -15  1    3    3    0    0 -1.2395393093e+01 +5.3940858089e+01 +2.8037296199e+01 6.2068588260e+01 1.7770000000e+00 0.0000e+00 1.0000e+00
       15  1    3    3    0    0 +1.1799802672e+01 -5.3291950665e+01 -2.9010152502e+01 6.1838612743e+01 1.7770000000e+00 0.0000e+00 1.0000e+00
       22  1    3    3    0    0 +5.9559042092e-01 -6.4890742394e-01 -6.6480173844e-01 1.1035262325e+00 0.0000000000e+00 0.0000e+00 -1.0000e+00
<mgrwt>
<rscale>  2 0.12500000E+03</rscale>
<asrwt>0</asrwt>
<pdfrwt beam="1">  1       21 0.90715493E-02 0.12500000E+03</pdfrwt>
<pdfrwt beam="2">  1       21 0.93123812E-02 0.12500000E+03</pdfrwt>
<totfact> 0.88999987E+06</totfact>
</mgrwt>
</event>
<event>
 6      0 +1.3698540e+00 1.25000000e+02 7.54677100e-03 1.12640300e-01
       21 -1    0    0  502  501 +0.0000000000e+00 +0.0000000000e+00 +1.2018639531e+01 1.2018639531e+01 0.0000000000e+00 0.0000e+00 1.0000e+00
       21 -1    0    0  501  502 -0.0000000000e+00 -0.0000000000e+00 -3.2501598786e+02 3.2501598786e+02 0.0000000000e+00 0.0000e+00 1.0000e+00
       25  2    1    2    0    0 +0.0000000000e+00 +0.0000000000e+00 -3.1299734833e+02 3.3703462739e+02 1.2500000000e+02 0.0000e+00 0.0000e+00
      -15  1    3    3    0    0 +9.6058576209e+00 -3.7038114966e+00 -7.0323532275e+00 1.2593746114e+01 1.7770000000e+00 0.0000e+00 -1.0000e+00
       15  1    3    3    0    0 -2.3697075049e+01 -1.0982030987e+01 -1.0388404328e+01 2.8164393193e+01 1.7770000000e+00 0.0000e+00 -1.0000e+00
       22  1    3    3    0    0 +1.4091217428e+01 +1.4685842483e+01 -2.9557659079e+02 2.9627648810e+02 0.0000000000e+00 0.0000e+00 -1.0000e+00
<mgrwt>
<rscale>  2 0.12500000E+03</rscale>
<asrwt>0</asrwt>
<pdfrwt beam="1">  1       21 0.17674472E-02 0.12500000E+03</pdfrwt>
<pdfrwt beam="2">  1       21 0.47796464E-01 0.12500000E+03</pdfrwt>
<totfact> 0.59876037E+06</totfact>
</mgrwt>
</event>
<event>
 6      0 +1.3698540e+00 1.25000000e+02 7.54677100e-03 1.12640300e-01
       21 -1    0    0  502  501 +0.0000000000e+00 +0.0000000000e+00 +1.0037758100e+03 1.0037758100e+03 0.0000000000e+00 0.0000e+00 -1.0000e+00
       21 -1    0    0  501  502 -0.0000000000e+00 -0.0000000000e+00 -3.8915562231e+00 3.8915562231e+00 0.0000000000e+00 0.0000e+00 -1.0000e+00
       25  2    1    2    0    0 +0.0000000000e+00 +0.0000000000e+00 +9.9988425378e+02 1.0076673662e+03 1.2500000000e+02 0.0000e+00 0.0000e+00
      -15  1    3    3    0    0 -8.2913601676e+00 -2.0463415211e+01 +2.3924982463e+02 2.4027304120e+02 1.7770000000e+00 0.0000e+00 -1.0000e+00
       15  1    3    3    0    0 +1.7578684979e+01 -3.4478021489e+01 +4.6084336935e+02 4.6246893185e+02 1.7770000000e+00 0.0000e+00 -1.0000e+00
       22  1    3    3    0    0 -9.2873248114e+00 +5.4941436700e+01 +2.9979106150e+02 3.0492539485e+02 0.0000000000e+00 0.0000e+00 -1.0000e+00
<mgrwt>
<rscale>  2 0.12500000E+03</rscale>
<asrwt>0</asrwt>
<pdfrwt beam="1">  1       21 0.14761391E+00 0.12500000E+03</pdfrwt>
<pdfrwt beam="2">  1       21 0.57228838E-03 0.12500000E+03</pdfrwt>
<totfact> 0.20951768E+06</totfact>
</mgrwt>
</event>
<event>
 6      0 +1.3698540e+00 1.25000000e+02 7.54677100e-03 1.12640300e-01
       21 -1    0    0  502  501 +0.0000000000e+00 +0.0000000000e+00 +1.4110693061e+02 1.4110693061e+02 0.0000000000e+00 0.0000e+00 1.0000e+00
       21 -1    0    0  501  502 -0.0000000000e+00 -0.0000000000e+00 -2.7682906737e+01 2.7682906737e+01 0.0000000000e+00 0.0000e+00 1.0000e+00
       25  2    1    2    0    0 +0.0000000000e+00 +0.0000000000e+00 +1.1342402387e+02 1.6878983734e+02 1.2500000000e+02 0.0000e+00 0.0000e+00
      -15  1    3    3    0    0 +1.3501734500e+01 +1.5330723804e+01 +1.2329666817e+02 1.2499021577e+02 1.7770000000e+00 0.0000e+00 -1.0000e+00
       15  1    3    3    0    0 +1.2973426393e+01 -3.8223546266e+00 -1.3943679205e+00 1.3712117931e+01 1.7770000000e+00 0.0000e+00 -1.0000e+00
       22  1    3    3    0    0 -2.6475160893e+01 -1.1508369178e+01 -8.4782763759e+00 3.0087503647e+01 0.0000000000e+00 0.0000e+00 -1.0000e+00
<mgrwt>
<rscale>  2 0.12500000E+03</rscale>
<asrwt>0</asrwt>
<pdfrwt beam="1">  1       21 0.20751019E-01 0.12500000E+03</pdfrwt>
<pdfrwt beam="2">  1       21 0.40710158E-02 0.12500000E+03</pdfrwt>
<totfact> 0.81556779E+06</totfact>
</mgrwt>
</event>
<event>
 6      0 +1.3698540e+00 1.25000000e+02 7.54677100e-03 1.12640300e-01
       21 -1    0    0  502  501 +0.0000000000e+00 +0.0000000000e+00 +5.3997906526e+01 5.3997906526e+01 0.0000000000e+00 0.0000e+00 1.0000e+00
       21 -1    0    0  501  502 -0.0000000000e+00 -0.0000000000e+00 -7.2340767472e+01 7.2340767472e+01 0.0000000000e+00 0.0000e+00 1.0000e+00
       25  2    1    2    0    0 +0.0000000000e+00 +0.0000000000e+00 -1.8342860946e+01 1.2633867400e+02 1.2500000000e+02 0.0000e+00 0.0000e+00
      -15  1    3    3    0    0 -2.9527173651e+01 +3.1168379753e+01 -2.2286841292e+01 4.8406434531e+01 1.7770000000e+00 0.0000e+00 -1.0000e+00
       15  1    3    3    0    0 +2.6536217247e+00 +8.6579866202e+00 -2.1621650129e+01 2.3508635092e+01 1.7770000000e+00 0.0000e+00 -1.0000e+00
       22  1    3    3    0    0 +2.6873551926e+01 -3.9826366373e+01 +2.5565630475e+01 5.4423604376e+01 0.0000000000e+00 0.0000e+00 -1.0000e+00
<mgrwt>
<rscale>  2 0.12500000E+03</rscale>
<asrwt>0</asrwt>
<pdfrwt beam="1">  1       21 0.79408687E-02 0.12500000E+03</pdfrwt>
<pdfrwt beam="2">  1       21 0.10638348E-01 0.12500000E+03</pdfrwt>
<totfact> 0.88750881E+06</totfact>
</mgrwt>
</event>
<event>
 6      0 +1.3698540e+00 1.25000000e+02 7.54677100e-03 1.12640300e-01
       21 -1    0    0  502  501 +0.0000000000e+00 +0.0000000000e+00 +3.1785874383e+02 3.1785874383e+02 0.0000000000e+00 0.0000e+00 1.0000e+00
       21 -1    0    0  501  502 -0.0000000000e+00 -0.0000000000e+00 -1.2289263945e+01 1.2289263945e+01 0.0000000000e+00 0.0000e+00 1.0000e+00
       25  2    1    2    0    0 +0.0000000000e+00 +0.0000000000e+00 +3.0556947988e+02 3.3014800777e+02 1.2500000000e+02 0.0000e+00 0.0000e+00
      -15  1    3    3    0    0 -1.7573487015e+01 -2.0280289388e+01 +6.3519451496e+01 6.8978228673e+01 1.7770000000e+00 0.0000e+00 -1.0000e+00
       15  1    3    3    0    0 -3.0815752014e+01 -1.8318825042e+01 +9.8827192855e+01 1.0514352904e+02 1.7770000000e+00 0.0000e+00 -1.0000e+00
       22  1    3    3    0    0 +4.8389239029e+01 +3.8599114430e+01 +1.4322283553e+02 1.5602625005e+02 0.0000000000e+00 0.0000e+00 -1.0000e+00
<mgrwt>
<rscale>  2 0.12500000E+03</rscale>
<asrwt>0</asrwt>
<pdfrwt beam="1">  1       21 0.46743928E-01 0.12500000E+03</pdfrwt>
<pdfrwt beam="2">  1       21 0.18072449E-02 0.12500000E+03</pdfrwt>
<totfact> 0.60607420E+06</totfact>
</mgrwt>
</event>
<event>
 6      0 +1.3698540e+00 1.25000000e+02 7.54677100e-03 1.12640300e-01
       21 -1    0    0  502  501 +0.0000000000e+00 +0.0000000000e+00 +5.1049892411e+02 5.1049892411e+02 0.0000000000e+00 0.0000e+00 1.0000e+00
       21 -1    0    0  501  502 -0.0000000000e+00 -0.0000000000e+00 -7.6518280754e+00 7.6518280754e+00 0.0000000000e+00 0.0000e+00 1.0000e+00
       25  2    1    2    0    0 +0.0000000000e+00 +0.0000000000e+00 +5.0284709604e+02 5.1815075219e+02 1.2500000000e+02 0.0000e+00 0.0000e+00
      -15  1    3    3    0    0 +1.5097474524e+01 -3.6745306146e+00 +1.3911726889e+01 2.0931550022e+01 1.7770000000e+00 0.0000e+00 -1.0000e+00
       15  1    3    3    0    0 +3.0589328391e+01 -1.2827751630e+01 +1.0263237547e+02 1.0787409535e+02 1.7770000000e+00 0.0000e+00 -1.0000e+00
       22  1    3    3    0    0 -4.5686802915e+01 +1.6502282245e+01 +3.8630299369e+02 3.8934510683e+02 0.0000000000e+00 0.0000e+00 -1.0000e+00
<mgrwt>
<rscale>  2 0.12500000E+03</rscale>
<asrwt>0</asrwt>
<pdfrwt beam="1">  1       21 0.75073348E-01 0.12500000E+03</pdfrwt>
<pdfrwt beam="2">  1       21 0.11252692E-02 0.12500000E+03</pdfrwt>
<totfact> 0.44003107E+06</totfact>
</mgrwt>
</event>
<event>
 6      0 +1.3698540e+00 1.25000000e+02 7.54677100e-03 1.12640300e-01
       21 -1    0    0  502  501 +0.0000000000e+00 +0.0000000000e+00 +1.1454182726e+01 1.1454182726e+01 0.0000000000e+00 0.0000e+00 -1.0000e+00
       21 -1    0    0  501  502 -0.0000000000e+00 -0.0000000000e+00 -3.4103262480e+02 3.4103262480e+02 0.0000000000e+00 0.0000e+00 -1.0000e+00
       25  2    1    2    0    0 +0.0000000000e+00 +0.0000000000e+00 -3.2957844207e+02 3.5248680752e+02 1.2500000000e+02 0.0000e+00 0.0000e+00
      -15  1    3    3    0    0 +1.8881021588e+01 +4.8249845288e+00 -3.3175456778e+02 3.3233119689e+02 1.7770000000e+00 0.0000e+00 -1.0000e+00
       15  1    3    3    0    0 -1.8924320869e+01 -4.8436975638e+00 +2.5488338296e+00 1.9779929457e+01 1.7770000000e+00 0.0000e+00 -1.0000e+00
       22  1    3    3    0    0 +4.3299281181e-02 +1.8713034985e-02 -3.7270813716e-01 3.7568119588e-01 0.0000000000e+00 0.0000e+00 1.0000e+00
<mgrwt>
<rscale>  2 0.12500000E+03</rscale>
<asrwt>0</asrwt>
<pdfrwt beam="1">  1       21 0.16844384E-02 0.12500000E+03</pdfrwt>
<pdfrwt beam="2">  1       21 0.50151864E-01 0.12500000E+03</pdfrwt>
<totfact> 0.58274833E+06</totfact>
</mgrwt>
</event>
<event>
 6      0 +1.3698540e+00 1.25000000e+02 7.54677100e-03 1.12640300e-01
       21 -1    0    0  502  501 +0.0000000000e+00 +0.0000000000e+00 +1.3273018355e+01 1.3273018355e+01 0.0000000000e+00 0.0000e+00 1.0000e+00
       21 -1    0    0  501  502 -0.0000000000e+00 -0.0000000000e+00 -2.9430005260e+02 2.9430005260e+02 0.0000000000e+00 0.0000e+00 1.0000e+00
       25  2    1    2    0    0 +0.0000000000e+00 +0.0000000000e+00 -2.8102703424e+02 3.0757307095e+02 1.2500000000e+02 0.0000e+00 0.0000e+00
      -15  1    3    3    0    0 +4.3395578850e+01 +8.8549079796e+00 -4.5824137111e+01 6.3754175784e+01 1.7770000000e+00 0.0000e+00 -1.0000e+00
       15  1    3    3    0    0 -2.3845118622e+01 -2.7502711187e+01 -1.1588621545e+02 1.2148152726e+02 1.7770000000e+00 0.0000e+00 -1.0000e+00
       22  1    3    3    0    0 -1.9550460227e+01 +1.8647803207e+01 -1.1931668168e+02 1.2233736791e+02 0.0000000000e+00 0.0000e+00 -1.0000e+00
<mgrwt>
<rscale>  2 0.12500000E+03</rscale>
<asrwt>0</asrwt>
<pdfrwt beam="1">  1       21 0.19519145E-02 0.12500000E+03</pdfrwt>
<pdfrwt beam="2">  1       21 0.43279418E-01 0.12500000E+03</pdfrwt>
<totfact> 0.63087815E+06</totfact>
</mgrwt>
</event>
<event>
 6      0 +1.3698540e+00 1.25000000e+02 7.54677100e-03 1.12640300e-01
       21 -1    0    0  502  501 +0.0000000000e+00 +0.0000000000e+00 +8.1237115937e+02 8.1237115937e+02 0.0000000000e+00 0.0000e+00 1.0000e+00
       21 -1    0    0  501  502 -0.0000000000e+00 -0.0000000000e+00 -4.8084547992e+00 4.8084547992e+00 0.0000000000e+00 0.0000e+00 1.0000e+00
       25  2    1    2    0    0 +0.0000000000e+00 +0.0000000000e+00 +8.0756270457e+02 8.1717961417e+02 1.2500000000e+02 0.0000e+00 0.0000e+00
      -15  1    3    3    0    0 -1.9554237633e+01 +2.3634954316e+01 +7.5958317319e+02 7.6020440277e+02 1.7770000000e+00 0.0000e+00 -1.0000e+00
       15  1    3    3    0    0 +1.9554244263e+01 -2.3634959128e+01 +4.7979433988e+01 5.6975113659e+01 1.7770000000e+00 0.0000e+00 -1.0000e+00
       22  1    3    3    0    0 -6.6295711847e-06 +4.8123419476e-06 +9.7324876089e-05 9.7669039899e-05 0.0000000000e+00 0.0000e+00 1.0000e+00
<mgrwt>
<rscale>  2 0.12500000E+03</rscale>
<asrwt>0</asrwt>
<pdfrwt beam="1">  1       21 0.11946625E+00 0.12500000E+03</pdfrwt>
<pdfrwt beam="2">  1       21 0.70712627E-03 0.12500000E+03</pdfrwt>
<totfact> 0.27574697E+06</totfact>
</mgrwt>
</event>
<event>
 6      0 +1.3698540e+00 1.25000000e+02 7.54677100e-03 1.12640300e-01
       21 -1    0    0  502  501 +0.0000000000e+00 +0.0000000000e+00 +1.4762560805e+01 1.4762560805e+01 0.0000000000e+00 0.0000e+00 1.0000e+00
       21 -1    0    0  501  502 -0.0000000000e+00 -0.0000000000e+00 -2.6460517600e+02 2.6460517600e+02 0.0000000000e+00 0.0000e+00 1.0000e+00
       25  2    1    2    0    0 +0.0000000000e+00 +0.0000000000e+00 -2.4984261520e+02 2.7936773681e+02 1.2500000000e+02 0.0000e+00 0.0000e+00
      -15  1    3    3    0    0 +3.9508583494e+01 -8.0525275360e+00 -2.1733834134e+01 4.5839815058e+01 1.7770000000e+00 0.0000e+00 -1.0000e+00
       15  1    3    3    0    0 -1.6874943365e-01 -7.0910214517e+00 -4.7875107855e+01 4.8430308101e+01 1.7770000000e+00 0.0000e+00 -1.0000e+00
       22  1    3    3    0    0 -3.9339834061e+01 +1.5143548988e+01 -1.8023367321e+02 1.8509761365e+02 0.0000000000e+00 0.0000e+00 -1.0000e+00
<mgrwt>
<rscale>  2 0.12500000E+03</rscale>
<asrwt>0</asrwt>
<pdfrwt beam="1">  1       21 0.21709650E-02 0.12500000E+03</pdfrwt>
<pdfrwt beam="2">  1       21 0.38912523E-01 0.12500000E+03</pdfrwt>
<totfact> 0.66366881E+06</totfact>
</mgrwt>
</event>
<event>
 6      0 +1.3698540e+00 1.25000000e+02 7.54677100e-03 1.12640300e-01
       21 -1    0    0  502  501 +0.0000000000e+00 +0.0000000000e+00 +8.7865810924e+02 8.7865810924e+02 0.0000000000e+00 0.0000e+00 -1.0000e+00
       21 -1    0    0  501  502 -0.0000000000e+00 -0.0000000000e+00 -4.4456995946e+00 4.4456995946e+00 0.0000000000e+00 0.0000e+00 -1.0000e+00
       25  2    1    2    0    0 +0.0000000000e+00 +0.0000000000e+00 +8.7421240964e+02 8.8310380883e+02 1.2500000000e+02 0.0000e+00 0.0000e+00
      -15  1    3    3    0    0 -5.1859383025e+01 +2.8697493448e+01 +2.9756008555e+02 3.0341078422e+02 1.7770000000e+00 0.0000e+00 -1.0000e+00
       15  1    3    3    0    0 +5.1859384811e+01 -2.8697493567e+01 +5.7665231415e+02 5.7969301451e+02 1.7770000000e+00 0.0000e+00 -1.0000e+00
       22  1    3    3    0    0 -1.7859614363e-06 +1.1843244796e-07 +9.8940446321e-06 1.0054640903e-05 0.0000000000e+00 0.0000e+00 -1.0000e+00
<mgrwt>
<rscale>  2 0.12500000E+03</rscale>
<asrwt>0</asrwt>
<pdfrwt beam="1">  1       21 0.12921431E+00 0.12500000E+03</pdfrwt>
<pdfrwt beam="2">  1       21 0.65377996E-03 0.12500000E+03</pdfrwt>
<totfact> 0.25034003E+06</totfact>
</mgrwt>
</event>
<event>
 6      0 +1.3698540e+00 1.25000000e+02 7.54677100e-03 1.12640300e-01
       21 -1    0    0  502  501 +0.0000000000e+00 +0.0000000000e+00 +5.0220801060e+01 5.0220801060e+01 0.0000000000e+00 0.0000e+00 1.0000e+00
       21 -1    0    0  501  502 -0.0000000000e+00 -0.0000000000e+00 -7.7781515181e+01 7.7781515181e+01 0.0000000000e+00 0.0000e+00 1.0000e+00
       25  2    1    2    0    0 +0.0000000000e+00 +0.0000000000e+00 -2.7560714121e+01 1.2800231624e+02 1.2500000000e+02 0.0000e+00 0.0000e+00
      -15  1    3    3    0    0 -8.5498526265e+00 +3.1561688457e+00 -1.9141339267e+01 2.1274632303e+01 1.7770000000e+00 0.0000e+00 -1.0000e+00
       15  1    3    3    0    0 -3.2243632855e+01 -2.9427346311e-01 -4.2581379586e+01 5.3442212464e+01 1.7770000000e+00 0.0000e+00 -1.0000e+00
       22  1    3    3    0    0 +4.0793485481e+01 -2.8618953826e+00 +3.4162004732e+01 5.3285471473e+01 0.0000000000e+00 0.0000e+00 -1.0000e+00
<mgrwt>
<rscale>  2 0.12500000E+03</rscale>
<asrwt>0</asrwt>
<pdfrwt beam="1">  1       21 0.73854120E-02 0.12500000E+03</pdfrwt>
<pdfrwt beam="2">  1       21 0.11438458E-01 0.12500000E+03</pdfrwt>
<totfact> 0.88457273E+06</totfact>
</mgrwt>
</event>
<event>
 6      0 +1.3698540e+00 1.25000000e+02 7.54677100e-03 1.12640300e-01
       21 -1    0    0  502  501 +0.0000000000e+00 +0.0000000000e+00 +1.5118181728e+02 1.5118181728e+02 0.0000000000e+00 0.0000e+00 -1.0000e+00
       21 -1    0    0  501  502 -0.0000000000e+00 -0.0000000000e+00 -2.5838093960e+01 2.5838093960e+01 0.0000000000e+00 0.0000e+00 -1.0000e+00
       25  2    1    2    0    0 +0.0000000000e+00 +0.0000000000e+00 +1.2534372332e+02 1.7701991124e+02 1.2500000000e+02 0.0000e+00 0.0000e+00
      -15  1    3    3    0    0 -2.0658961125e+01 +5.1361080771e+00 +1.0717201866e+02 1.0928024338e+02 1.7770000000e+00 0.0000e+00 -1.0000e+00
       15  1    3    3    0    0 -2.5014681749e+00 +2.0503237580e+01 +2.5044169537e+01 3.2511663308e+01 1.7770000000e+00 0.0000e+00 -1.0000e+00
       22  1    3    3    0    0 +2.3160429300e+01 -2.5639345657e+01 -6.8724648782e+00 3.5228004549e+01 0.0000000000e+00 0.0000e+00 -1.0000e+00
<mgrwt>
<rscale>  2 0.12500000E+03</rscale>
<asrwt>0</asrwt>
<pdfrwt beam="1">  1       21 0.22232620E-01 0.12500000E+03</pdfrwt>
<pdfrwt beam="2">  1       21 0.37997198E-02 0.12500000E+03</pdfrwt>
<totfact> 0.80264788E+06</totfact>
</mgrwt>
</event>
<event>
 6      0 +1.3698540e+00 1.25000000e+02 7.54677100e-03 1.12640300e-01
       21 -1    0    0  502  501 +0.0000000000e+00 +0.0000000000e+00 +2.1020315729e+01 2.1020315729e+01 0.0000000000e+00 0.0000e+00 -1.0000e+00
       21 -1    0    0  501  502 -0.0000000000e+00 -0.0000000000e+00 -1.8583212785e+02 1.8583212785e+02 0.0000000000e+00 0.0000e+00 -1.0000e+00
       25  2    1    2    0    0 +0.0000000000e+00 +0.0000000000e+00 -1.6481181212e+02 2.0685244358e+02 1.2500000000e+02 0.0000e+00 0.0000e+00
      -15  1    3    3    0    0 +3.4775799123e+01 -2.6015672475e+01 -1.4081530915e+02 1.4737123342e+02 1.7770000000e+00 0.0000e+00 -1.0000e+00
       15  1    3    3    0    0 -1.8188176804e+01 +2.2854344386e+01 +1.0417237246e+00 2.9280945171e+01 1.7770000000e+00 0.0000e+00 -1.0000e+00
       22  1    3    3    0    0 -1.6587622319e+01 +3.1613280890e+00 -2.5038226690e+01 3.0200264986e+01 0.0000000000e+00 0.0000e+00 -1.0000e+00
<mgrwt>
<rscale>  2 0.12500000E+03</rscale>
<asrwt>0</asrwt>
<pdfrwt beam="1">  1       21 0.30912230E-02 0.12500000E+03</pdfrwt>
<pdfrwt beam="2">  1       21 0.27328253E-01 0.12500000E+03</pdfrwt>
<totfact> 0.75830768E+06</totfact>
</mgrwt>
</event>
<event>
 6      0 +1.3698540e+00 1.25000000e+02 7.54677100e-03 1.12640300e-01
       21 -1    0    0  502  501 +0.0000000000e+00 +0.0000000000e+00 +6.1455794778e+00 6.1455794778e+00 0.0000000000e+00 0.0000e+00 -1.0000e+00
       21 -1    0    0  501  502 -0.0000000000e+00 -0.0000000000e+00 -6.3561947479e+02 6.3561947479e+02 0.0000000000e+00 0.0000e+00 -1.0000e+00
       25  2    1    2    0    0 +0.0000000000e+00 +0.0000000000e+00 -6.2947389532e+02 6.4176505427e+02 1.2500000000e+02 0.0000e+00 0.0000e+00
      -15  1    3    3    0    0 +2.9909839924e+01 +2.3307848178e+01 -2.2191946705e+02 2.2514275893e+02 1.7770000000e+00 0.0000e+00 -1.0000e+00
       15  1    3    3    0    0 -2.4226074391e+00 -7.8978029412e+00 -3.5667251585e+02 3.5677259650e+02 1.7770000000e+00 0.0000e+00 -1.0000e+00
       22  1    3    3    0    0 -2.7487232485e+01 -1.5410045237e+01 -5.0881912556e+01 5.9849698991e+01 0.0000000000e+00 0.0000e+00 -1.0000e+00
<mgrwt>
<rscale>  2 0.12500000E+03</rscale>
<asrwt>0</asrwt>
<pdfrwt beam="1">  1       21 0.90376176E-03 0.12500000E+03</pdfrwt>
<pdfrwt beam="2">  1       21 0.93473444E-01 0.12500000E+03</pdfrwt>
<totfact> 0.36011586E+06</totfact>
</mgrwt>
</event>
<event>
 6      0 +1.3698540e+00 1.25000000e+02 7.54677100e-03 1.12640300e-01
       21 -1    0    0  502  501 +0.0000000000e+00 +0.0000000000e+00 +1.9855590758e+01 1.9855590758e+01 0.0000000000e+00 0.0000e+00 1.0000e+00
       21 -1    0    0  501  502 -0.0000000000e+00 -0.0000000000e+00 -1.9673300319e+02 1.9673300319e+02 0.0000000000e+00 0.0000e+00 1.0000e+00
       25  2    1    2    0    0 +0.0000000000e+00 +0.0000000000e+00 -1.7687741243e+02 2.1658859395e+02 1.2500000000e+02 0.0000e+00 0.0000e+00
      -15  1    3    3    0    0 +6.2058937325e+01 +5.0796264614e+00 -7.9793921874e+01 1.0122915590e+02 1.7770000000e+00 0.0000e+00 1.0000e+00
       15  1    3    3    0    0 -6.2050654440e+01 -5.0611099154e+00 -9.7076047192e+01 1.1533783082e+02 1.7770000000e+00 0.0000e+00 1.0000e+00
       22  1    3    3    0    0 -8.2828845476e-03 -1.8516546092e-02 -7.4433569148e-03 2.1607226054e-02 0.0000000000e+00 0.0000e+00 -1.0000e+00
<mgrwt>
<rscale>  2 0.12500000E+03</rscale>
<asrwt>0</asrwt>
<pdfrwt beam="1">  1       21 0.29199397E-02 0.12500000E+03</pdfrwt>
<pdfrwt beam="2">  1       21 0.28931326E-01 0.12500000E+03</pdfrwt>
<totfact> 0.74463396E+06</totfact>
</mgrwt>
</event>
<event>
 6      0 +1.3698540e+00 1.25000000e+02 7.54677100e-03 1.12640300e-01
       21 -1    0    0  502  501 +0.0000000000e+00 +0.0000000000e+00 +9.5499487073e+00 9.5499487073e+00 0.0000000000e+00 0.0000e+00 -1.0000e+00
       21 -1    0    0  501  502 -0.0000000000e+00 -0.0000000000e+00 -4.0903361052e+02 4.0903361052e+02 0.0000000000e+00 0.0000e+00 -1.0000e+00
       25  2    1    2    0    0 +0.0000000000e+00 +0.0000000000e+00 -3.9948366181e+02 4.1858355923e+02 1.2500000000e+02 0.0000e+00 0.0000e+00
      -15  1    3    3    0    0 +4.1167587296e+01 +3.9634040459e+01 -1.1519442643e+02 1.2860225899e+02 1.7770000000e+00 0.0000e+00 -1.0000e+00
       15  1    3    3    0    0 -4.1167587025e+01 -3.9634040198e+01 -2.8428923329e+02 2.8998129811e+02 1.7770000000e+00 0.0000e+00 -1.0000e+00
       22  1    3    3    0    0 -2.7114002299e-07 -2.6048351013e-07 -2.0320995621e-06 2.0665907193e-06 0.0000000000e+00 0.0000e+00 1.0000e+00
<mgrwt>
<rscale>  2 0.12500000E+03</rscale>
<asrwt>0</asrwt>
<pdfrwt beam="1">  1       21 0.14044046E-02 0.12500000E+03</pdfrwt>
<pdfrwt beam="2">  1       21 0.60151986E-01 0.12500000E+03</pdfrwt>
<totfact> 0.51973474E+06</totfact>
</mgrwt>
</event>
<event>
 6      0 +1.3698540e+00 1.25000000e+02 7.54677100e-03 1.12640300e-01
       21 -1    0    0  502  501 +0.0000000000e+00 +0.0000000000e+00 +4.2341343212e+01 4.2341343212e+01 0.0000000000e+00 0.0000e+00 -1.0000e+00
       21 -1    0    0  501  502 -0.0000000000e+00 -0.0000000000e+00 -9.2256166282e+01 9.2256166282e+01 0.0000000000e+00 0.0000e+00 -1.0000e+00
       25  2    1    2    0    0 +0.0000000000e+00 +0.0000000000e+00 -4.9914823070e+01 1.3459750949e+02 1.2500000000e+02 0.0000e+00 0.0000e+00
      -15  1    3    3    0    0 -3.9263775243e+01 +2.6420225550e+01 -1.4400711999e+01 4.9499602014e+01 1.7770000000e+00 0.0000e+00 -1.0000e+00
       15  1    3    3    0    0 +5.3024906785e+00 -9.8069893076e+00 -4.4772426175e+01 4.6173816403e+01 1.7770000000e+00 0.0000e+00 -1.0000e+00
       22  1    3    3    0    0 +3.3961284565e+01 -1.6613236242e+01 +9.2583151020e+00 3.8924091078e+01 0.0000000000e+00 0.0000e+00 -1.0000e+00
<mgrwt>
<rscale>  2 0.12500000E+03</rscale>
<asrwt>0</asrwt>
<pdfrwt beam="1">  1       21 0.62266682E-02 0.12500000E+03</pdfrwt>
<pdfrwt beam="2">  1       21 0.13567083E-01 0.12500000E+03</pdfrwt>
<totfact> 0.87276379E+06</totfact>
</mgrwt>
</event>
<event>
 6      0 +1.3698540e+00 1.25000000e+02 7.54677100e-03 1.12640300e-01
       21 -1    0    0  502  501 +0.0000000000e+00 +0.0000000000e+00 +1.2882883370e+02 1.2882883370e+02 0.0000000000e+00 0.0000e+00 1.0000e+00
       21 -1    0    0  501  502 -0.0000000000e+00 -0.0000000000e+00 -3.0321240113e+01 3.0321240113e+01 0.0000000000e+00 0.0000e+00 1.0000e+00
       25  2    1    2    0    0 +0.0000000000e+00 +0.0000000000e+00 +9.8507593585e+01 1.5915007381e+02 1.2500000000e+02 0.0000e+00 0.0000e+00
      -15  1    3    3    0    0 +1.1986170422e+01 -1.5812761030e+01 +1.7690713372e+01 2.6642649294e+01 1.7770000000e+00 0.0000e+00 -1.0000e+00
       15  1    3    3    0    0 -2.1102649812e+00 +2.7389298643e+01 +1.0243581913e+02 1.0607017332e+02 1.7770000000e+00 0.0000e+00 -1.0000e+00
       22  1    3    3    0    0 -9.8759054405e+00 -1.1576537614e+01 -2.1618938912e+01 2.6437251201e+01 0.0000000000e+00 0.0000e+00 -1.0000e+00
<mgrwt>
<rscale>  2 0.12500000E+03</rscale>
<asrwt>0</asrwt>
<pdfrwt beam="1">  1       21 0.18945417E-01 0.12500000E+03</pdfrwt>
<pdfrwt beam="2">  1       21 0.44590059E-02 0.12500000E+03</pdfrwt>
<totfact> 0.83117096E+06</totfact>
</mgrwt>
</event>
<event>
 6      0 +1.3698540e+00 1.25000000e+02 7.54677100e-03 1.12640300e-01
       21 -1    0    0  502  501 +0.0000000000e+00 +0.0000000000e+00 +3.1960824193e+01 3.1960824193e+01 0.0000000000e+00 0.0000e+00 1.0000e+00
       21 -1    0    0  501  502 -0.0000000000e+00 -0.0000000000e+00 -1.2221993952e+02 1.2221993952e+02 0.0000000000e+00 0.0000e+00 1.0000e+00
       25  2    1    2    0    0 +0.0000000000e+00 +0.0000000000e+00 -9.0259115331e+01 1.5418076372e+02 1.2500000000e+02 0.0000e+00 0.0000e+00
      -15  1    3    3    0    0 +1.3229736217e+01 +3.4330792397e+01 -1.7415548598e+01 4.0744181044e+01 1.7770000000e+00 0.0000e+00 -1.0000e+00
       15  1    3    3    0    0 -4.5523549476e+01 -2.7727054225e+01 -3.8090455208e+01 6.5537955414e+01 1.7770000000e+00 0.0000e+00 -1.0000e+00
       22  1    3    3    0    0 +3.2293813259e+01 -6.6037381717e+00 -3.4753111522e+01 4.7898627257e+01 0.0000000000e+00 0.0000e+00 -1.0000e+00
<mgrwt>
<rscale>  2 0.12500000E+03</rscale>
<asrwt>0</asrwt>
<pdfrwt beam="1">  1       21 0.47001212E-02 0.12500000E+03</pdfrwt>
<pdfrwt beam="2">  1       21 0.17973521E-01 0.12500000E+03</pdfrwt>
<totfact> 0.83930320E+06</totfact>
</mgrwt>
</event>
<event>
 6      0 +1.3698540e+00 1.25000000e+02 7.54677100e-03 1.12640300e-01
       21 -1    0    0  502  501 +0.0000000000e+00 +0.0000000000e+00 +3.6190995194e+02 3.6190995194e+02 0.0000000000e+00 0.0000e+00 1.0000e+00
       21 -1    0    0  501  502 -0.0000000000e+00 -0.0000000000e+00 -1.0793430739e+01 1.0793430739e+01 0.0000000000e+00 0.0000e+00 1.0000e+00
       25  2    1    2    0    0 +0.0000000000e+00 +0.0000000000e+00 +3.5111652120e+02 3.7270338268e+02 1.2500000000e+02 0.0000e+00 0.0000e+00
      -15  1    3    3    0    0 -3.3919514221e+01 -3.9036056834e+01 +2.6209254284e+02 2.6715165341e+02 1.7770000000e+00 0.0000e+00 -1.0000e+00
       15  1    3    3    0    0 +3.5002871176e+01 +4.0373546307e+01 +7.9061247102e+01 9.5441410060e+01 1.7770000000e+00 0.0000e+00 -1.0000e+00
       22  1    3    3    0    0 -1.0833569549e+00 -1.3374894729e+00 +9.9627312406e+00 1.0110319192e+01 0.0000000000e+00 0.0000e+00 -1.0000e+00
<mgrwt>
<rscale>  2 0.12500000E+03</rscale>
<asrwt>0</asrwt>
<pdfrwt beam="1">  1       21 0.53222044E-01 0.12500000E+03</pdfrwt>
<pdfrwt beam="2">  1       21 0.15872695E-02 0.12500000E+03</pdfrwt>
<totfact> 0.56254591E+06</totfact>
</mgrwt>
</event>
<event>
 6      0 +1.3698540e+00 1.25000000e+02 7.54677100e-03 1.12640300e-01
       21 -1    0    0  502  501 +0.0000000000e+00 +0.0000000000e+00 +5.4793681156e+01 5.4793681156e+01 0.0000000000e+00 0.0000e+00 1.0000e+00
       21 -1    0    0  501  502 -0.0000000000e+00 -0.0000000000e+00 -7.1290154586e+01 7.1290154586e+01 0.0000000000e+00 0.0000e+00 1.0000e+00
       25  2    1    2    0    0 +0.0000000000e+00 +0.0000000000e+00 -1.6496473430e+01 1.2608383574e+02 1.2500000000e+02 0.0000e+00 0.0000e+00
      -15  1    3    3    0    0 -2.7050001748e-01 +6.2334750563e+01 -1.2440277540e+01 6.3589405818e+01 1.7770000000e+00 0.0000e+00 -1.0000e+00
       15  1    3    3    0    0 +2.7089826114e-01 -6.2335707149e+01 -4.0560563756e+00 6.2493384401e+01 1.7770000000e+00 0.0000e+00 -1.0000e+00
       22  1    3    3    0    0 -3.9824365408e-04 +9.5658558385e-04 -1.3951492973e-04 1.0455230283e-03 0.0000000000e+00 0.0000e+00 1.0000e+00
<mgrwt>
<rscale>  2 0.12500000E+03</rscale>
<asrwt>0</asrwt>
<pdfrwt beam="1">  1       21 0.80578943E-02 0.12500000E+03</pdfrwt>
<pdfrwt beam="2">  1       21 0.10483846E-01 0.12500000E+03</pdfrwt>
<totfact> 0.88796628E+06</totfact>
</mgrwt>
</event>
<event>
 6      0 +1.3698540e+00 1.25000000e+02 7.54677100e-03 1.12640300e-01
       21 -1    0    0  502  501 +0.0000000000e+00 +0.0000000000e+00 +7.5605295002e+00 7.5605295002e+00 0.0000000000e+00 0.0000e+00 -1.0000e+00
       21 -1    0    0  501  502 -0.0000000000e+00 -0.0000000000e+00 -5.1666354849e+02 5.1666354849e+02 0.0000000000e+00 0.0000e+00 -1.0000e+00
       25  2    1    2    0    0 +0.0000000000e+00 +0.0000000000e+00 -5.0910301899e+02 5.2422407799e+02 1.2500000000e+02 0.0000e+00 0.0000e+00
      -15  1    3    3    0    0 -1.9846178834e+00 -1.3407812965e+01 -1.3958476653e+01 1.9537270949e+01 1.7770000000e+00 0.0000e+00 -1.0000e+00
       15  1    3    3    0    0 +4.7799248972e+01 -7.8556013635e-01 -2.9646639165e+02 3.0030128940e+02 1.7770000000e+00 0.0000e+00 -1.0000e+00
       22  1    3    3    0    0 -4.5814631089e+01 +1.4193373102e+01 -1.9867815069e+02 2.0438551765e+02 0.0000000000e+00 0.0000e+00 -1.0000e+00
<mgrwt>
<rscale>  2 0.12500000E+03</rscale>
<asrwt>0</asrwt>
<pdfrwt beam="1">  1       21 0.11118425E-02 0.12500000E+03</pdfrwt>
<pdfrwt beam="2">  1       21 0.75979938E-01 0.12500000E+03</pdfrwt>
<totfact> 0.43571847E+06</totfact>
</mgrwt>
</event>
<event>
 6      0 +1.3698540e+00 1.25000000e+02 7.54677100e-03 1.12640300e-01
       21 -1    0    0  502  501 +0.0000000000e+00 +0.0000000000e+00 +8.4594780330e+01 8.4594780330e+01 0.0000000000e+00 0.0000e+00 -1.0000e+00
       21 -1    0    0  501  502 -0.0000000000e+00 -0.0000000000e+00 -4.6176016827e+01 4.6176016827e+01 0.0000000000e+00 0.0000e+00 -1.0000e+00
       25  2    1    2    0    0 +0.0000000000e+00 +0.0000000000e+00 +3.8418763502e+01 1.3077079716e+02 1.2500000000e+02 0.0000e+00 0.0000e+00
      -15  1    3    3    0    0 -5.1199806368e+01 -2.6509327955e+01 +4.2861656767e+01 7.1864066059e+01 1.7770000000e+00 0.0000e+00 -1.0000e+00
       15  1    3    3    0    0 +2.6332420404e+01 +1.1355154207e+01 -7.3045612191e+00 2.9645408330e+01 1.7770000000e+00 0.0000e+00 -1.0000e+00
       22  1    3    3    0    0 +2.4867385964e+01 +1.5154173748e+01 +2.8616679528e+00 2.9261322768e+01 0.0000000000e+00 0.0000e+00 -1.0000e+00
<mgrwt>
<rscale>  2 0.12500000E+03</rscale>
<asrwt>0</asrwt>
<pdfrwt beam="1">  1       21 0.12440409E-01 0.12500000E+03</pdfrwt>
<pdfrwt beam="2">  1       21 0.67905907E-02 0.12500000E+03</pdfrwt>
<totfact> 0.87957582E+06</totfact>
</mgrwt>
</event>
<event>
 6      0 +1.3698540e+00 1.25000000e+02 7.54677100e-03 1.12640300e-01
       21 -1    0    0  502  501 +0.0000000000e+00 +0.0000000000e+00 +3.9957239759e+01 3.9957239759e+01 0.0000000000e+00 0.0000e+00 -1.0000e+00
       21 -1    0    0  501  502 -0.0000000000e+00 -0.0000000000e+00 -9.7760756838e+01 9.7760756838e+01 0.0000000000e+00 0.0000e+00 -1.0000e+00
       25  2    1    2    0    0 +0.0000000000e+00 +0.0000000000e+00 -5.7803517079e+01 1.3771799660e+02 1.2500000000e+02 0.0000e+00 0.0000e+00
      -15  1    3    3    0    0 -3.1533544751e+01 -1.4440672324e+01 -4.2960467199e+01 5.5241804212e+01 1.7770000000e+00 0.0000e+00 -1.0000e+00
       15  1    3    3    0    0 +1.8885752725e+01 -1.8800291349e+01 +1.9474311264e+01 3.3053428552e+01 1.7770000000e+00 0.0000e+00 -1.0000e+00
       22  1    3    3    0    0 +1.2647792026e+01 +3.3240963673e+01 -3.4317361143e+01 4.9422763832e+01 0.0000000000e+00 0.0000e+00 -1.0000e+00
<mgrwt>
<rscale>  2 0.12500000E+03</rscale>
<asrwt>0</asrwt>
<pdfrwt beam="1">  1       21 0.58760647E-02 0.12500000E+03</pdfrwt>
<pdfrwt beam="2">  1       21 0.14376582E-01 0.12500000E+03</pdfrwt>
<totfact> 0.86733945E+06</totfact>
</mgrwt>
</event>
<event>
 6      0 +1.3698540e+00 1.25000000e+02 7.54677100e-03 1.12640300e-01
       21 -1    0    0  502  501 +0.0000000000e+00 +0.0000000000e+00 +5.4942999496e+02 5.4942999496e+02 0.0000000000e+00 0.0000e+00 1.0000e+00
       21 -1    0    0  501  502 -0.0000000000e+00 -0.0000000000e+00 -7.1096409658e+00 7.1096409658e+00 0.0000000000e+00 0.0000e+00 1.0000e+00
       25  2    1    2    0    0 +0.0000000000e+00 +0.0000000000e+00 +5.4232035400e+02 5.5653963593e+02 1.2500000000e+02 0.0000e+00 0.0000e+00
      -15  1    3    3    0    0 +1.5856506629e+01 +1.3537766443e+01 +1.3281749201e+02 1.3445573188e+02 1.7770000000e+00 0.0000e+00 -1.0000e+00
       15  1    3    3    0    0 +1.8627972787e+01 +2.7110275674e+01 +5.9193513057e+01 6.7742144448e+01 1.7770000000e+00 0.0000e+00 -1.0000e+00
       22  1    3    3    0    0 -3.4484479417e+01 -4.0648042117e+01 +3.5030934896e+02 3.5434175963e+02 0.0000000000e+00 0.0000e+00 -1.0000e+00
<mgrwt>
<rscale>  2 0.12500000E+03</rscale>
<asrwt>0</asrwt>
<pdfrwt beam="1">  1       21 0.80798500E-01 0.12500000E+03</pdfrwt>
<pdfrwt beam="2">  1       21 0.10455358E-02 0.12500000E+03</pdfrwt>
<totfact> 0.41355731E+06</totfact>
</mgrwt>
</event>
<event>
 6      0 +1.3698540e+00 1.25000000e+02 7.54677100e-03 1.12640300e-01
       21 -1    0    0  502  501 +0.0000000000e+00 +0.0000000000e+00 +1.3441357239e+02 1.3441357239e+02 0.0000000000e+00 0.0000e+00 1.0000e+00
       21 -1    0    0  501  502 -0.0000000000e+00 -0.0000000000e+00 -2.9061425351e+01 2.9061425351e+01 0.0000000000e+00 0.0000e+00 1.0000e+00
       25  2    1    2    0    0 +0.0000000000e+00 +0.0000000000e+00 +1.0535214703e+02 1.6347499774e+02 1.2500000000e+02 0.0000e+00 0.0000e+00
      -15  1    3    3    0    0 -3.2201519230e+00 +3.9398150809e+01 -1.0112534961e+01 4.0841213962e+01 1.7770000000e+00 0.0000e+00 -1.0000e+00
       15  1    3    3    0    0 +5.4189430780e+00 -3.8064621690e+01 +1.0425721953e+02 1.1113507961e+02 1.7770000000e+00 0.0000e+00 -1.0000e+00
       22  1    3    3    0    0 -2.1987911550e+00 -1.3335291186e+00 +1.1207462457e+01 1.1498704152e+01 0.0000000000e+00 0.0000e+00 -1.0000e+00
<mgrwt>
<rscale>  2 0.12500000E+03</rscale>
<asrwt>0</asrwt>
<pdfrwt beam="1">  1       21 0.19766702E-01 0.12500000E+03</pdfrwt>
<pdfrwt beam="2">  1       21 0.42737391E-02 0.12500000E+03</pdfrwt>
<totfact> 0.82413673E+06</totfact>
</mgrwt>
</event>
<event>
 6      0 +1.3698540e+00 1.25000000e+02 7.54677100e-03 1.12640300e-01
       21 -1    0    0  502  501 +0.0000000000e+00 +0.0000000000e+00 +3.9375844696e+02 3.9375844696e+02 0.0000000000e+00 0.0000e+00 -1.0000e+00
       21 -1    0    0  501  502 -0.0000000000e+00 -0.0000000000e+00 -9.9204221018e+00 9.9204221018e+00 0.0000000000e+00 0.0000e+00 -1.0000e+00
       25  2    1    2    0    0 +0.0000000000e+00 +0.0000000000e+00 +3.8383802486e+02 4.0367886906e+02 1.2500000000e+02 0.0000e+00 0.0000e+00
      -15  1    3    3    0    0 +3.1114831681e+01 -2.0189993513e+01 +1.9142716857e+02 1.9499560811e+02 1.7770000000e+00 0.0000e+00 -1.0000e+00
       15  1    3    3    0    0 -1.5006288767e+01 -8.6396277210e+00 +4.6180888677e+00 1.8008785173e+01 1.7770000000e+00 0.0000e+00 -1.0000e+00
       22  1    3    3    0    0 -1.6108542915e+01 +2.8829621234e+01 +1.8779276746e+02 1.9067447581e+02 0.0000000000e+00 0.0000e+00 -1.0000e+00
<mgrwt>
<rscale>  2 0.12500000E+03</rscale>
<asrwt>0</asrwt>
<pdfrwt beam="1">  1       21 0.57905644E-01 0.12500000E+03</pdfrwt>
<pdfrwt beam="2">  1       21 0.14588859E-02 0.12500000E+03</pdfrwt>
<totfact> 0.53317462E+06</totfact>
</mgrwt>
</event>
<event>
 6      0 +1.3698540e+00 1.25000000e+02 7.54677100e-03 1.12640300e-01
       21 -1    0    0  502  501 +0.0000000000e+00 +0.0000000000e+00 +1.4634612020e+02 1.4634612020e+02 0.0000000000e+00 0.0000e+00 -1.0000e+00
       21 -1    0    0  501  502 -0.0000000000e+00 -0.0000000000e+00 -2.6691858962e+01 2.6691858962e+01 0.0000000000e+00 0.0000e+00 -1.0000e+00
       25  2    1    2    0    0 +0.0000000000e+00 +0.0000000000e+00 +1.1965426124e+02 1.7303797916e+02 1.2500000000e+02 0.0000e+00 0.0000e+00
      -15  1    3    3    0    0 +2.0358513001e+01 +1.4270115701e+01 +1.3454419387e+01 2.8324625042e+01 1.7770000000e+00 0.0000e+00 -1.0000e+00
       15  1    3    3    0    0 -1.9959608933e+01 +3.6268390248e+01 +7.3928644907e+01 8.4748949177e+01 1.7770000000e+00 0.0000e+00 -1.0000e+00
       22  1    3    3    0    0 -3.9890406802e-01 -5.0538505948e+01 +3.2271196950e+01 5.9964404946e+01 0.0000000000e+00 0.0000e+00 -1.0000e+00
<mgrwt>
<rscale>  2 0.12500000E+03</rscale>
<asrwt>0</asrwt>
<pdfrwt beam="1">  1       21 0.21521488E-01 0.12500000E+03</pdfrwt>
<pdfrwt beam="2">  1       21 0.39252735E-02 0.12500000E+03</pdfrwt>
<totfact> 0.80884840E+06</totfact>
</mgrwt>
</event>
<event>
 6      0 +1.3698540e+00 1.25000000e+02 7.54677100e-03 1.12640300e-01
       21 -1    0    0  502  501 +0.0000000000e+00 +0.0000000000e+00 +2.4375191846e+01 2.4375191846e+01 0.0000000000e+00 0.0000e+00 -1.0000e+00
       21 -1    0    0  501  502 -0.0000000000e+00 -0.0000000000e+00 -1.6025514895e+02 1.6025514895e+02 0.0000000000e+00 0.0000e+00 -1.0000e+00
       25  2    1    2    0    0 +0.0000000000e+00 +0.0000000000e+00 -1.3587995711e+02 1.8463034080e+02 1.2500000000e+02 0.0000e+00 0.0000e+00
      -15  1    3    3    0    0 +2.7078373166e+01 -3.7376263893e+01 -8.0624381769e+01 9.2917555180e+01 1.7770000000e+00 0.0000e+00 -1.0000e+00
       15  1    3    3    0    0 -1.9040202637e+01 +1.0050144859e+01 -5.9142937077e+01 6.2964906600e+01 1.7770000000e+00 0.0000e+00 -1.0000e+00
       22  1    3    3    0    0 -8.0381705289e+00 +2.7326119035e+01 +3.8873617345e+00 2.8747879022e+01 0.0000000000e+00 0.0000e+00 -1.0000e+00
<mgrwt>
<rscale>  2 0.12500000E+03</rscale>
<asrwt>0</asrwt>
<pdfrwt beam="1">  1       21 0.35845868E-02 0.12500000E+03</pdfrwt>
<pdfrwt beam="2">  1       21 0.23566935E-01 0.12500000E+03</pdfrwt>
<totfact> 0.79102833E+06</totfact>
</mgrwt>
</event>
<event>
 6      0 +1.3698540e+00 1.25000000e+02 7.54677100e-03 1.12640300e-01
       21 -1    0    0  502  501 +0.0000000000e+00 +0.0000000000e+00 +2.4746739060e+01 2.4746739060e+01 0.0000000000e+00 0.0000e+00 1.0000e+00
       21 -1    0    0  501  502 -0.0000000000e+00 -0.0000000000e+00 -1.5784908026e+02 1.5784908026e+02 0.0000000000e+00 0.0000e+00 1.0000e+00
       25  2    1    2    0    0 +0.0000000000e+00 +0.0000000000e+00 -1.3310234120e+02 1.8259581932e+02 1.2500000000e+02 0.0000e+00 0.0000e+00
      -15  1    3    3    0    0 +2.2098003688e+01 -4.0209809259e+00 -1.5171025275e+02 1.5337421091e+02 1.7770000000e+00 0.0000e+00 1.0000e+00
       15  1    3    3    0    0 -2.2098003830e+01 +4.0209810046e+00 +1.8607914005e+01 2.9221605946e+01 1.7770000000e+00 0.0000e+00 1.0000e+00
       22  1    3    3    0    0 +1.4177797944e-07 -7.8660627533e-08 -2.4569610445e-06 2.4623050307e-06 0.0000000000e+00 0.0000e+00 -1.0000e+00
<mgrwt>
<rscale>  2 0.12500000E+03</rscale>
<asrwt>0</asrwt>
<pdfrwt beam="1">  1       21 0.36392263E-02 0.12500000E+03</pdfrwt>
<pdfrwt beam="2">  1       21 0.23213100E-01 0.12500000E+03</pdfrwt>
<totfact> 0.79410725E+06</totfact>
</mgrwt>
</event>
<event>
 6      0 +1.3698540e+00 1.25000000e+02 7.54677100e-03 1.12640300e-01
       21 -1    0    0  502  501 +0.0000000000e+00 +0.0000000000e+00 +3.1150074652e+00 3.1150074652e+00 0.0000000000e+00 0.0000e+00 1.0000e+00
       21 -1    0    0  501  502 -0.0000000000e+00 -0.0000000000e+00 -1.2540098358e+03 1.2540098358e+03 0.0000000000e+00 0.0000e+00 1.0000e+00
       25  2    1    2    0    0 +0.0000000000e+00 +0.0000000000e+00 -1.2508948283e+03 1.2571248433e+03 1.2500000000e+02 0.0000e+00 0.0000e+00
      -15  1    3    3    0    0 -1.6072335340e+01 -6.0251804219e+01 -6.6335896210e+02 6.6628587723e+02 1.7770000000e+00 0.0000e+00 -1.0000e+00
       15  1    3    3    0    0 +1.5804307603e+01 +5.8897710440e+01 -5.7412215283e+02 5.7735441501e+02 1.7770000000e+00 0.0000e+00 -1.0000e+00
       22  1    3    3    0    0 +2.6802773735e-01 +1.3540937795e+00 -1.3413706391e+01 1.3484544041e+01 0.0000000000e+00 0.0000e+00 1.0000e+00
<mgrwt>
<rscale>  2 0.12500000E+03</rscale>
<asrwt>0</asrwt>
<pdfrwt beam="1">  1       21 0.45808846E-03 0.12500000E+03</pdfrwt>
<pdfrwt beam="2">  1       21 0.18441356E+00 0.12500000E+03</pdfrwt>
<totfact> 0.14812163E+06</totfact>
</mgrwt>
</event>
<event>
 6      0 +1.3698540e+00 1.25000000e+02 7.54677100e-03 1.12640300e-01
       21 -1    0    0  502  501 +0.0000000000e+00 +0.0000000000e+00 +4.8801533223e+01 4.8801533223e+01 0.0000000000e+00 0.0000e+00 -1.0000e+00
       21 -1    0    0  501  502 -0.0000000000e+00 -0.0000000000e+00 -8.0043591707e+01 8.0043591707e+01 0.0000000000e+00 0.0000e+00 -1.0000e+00
       25  2    1    2    0    0 +0.0000000000e+00 +0.0000000000e+00 -3.1242058484e+01 1.2884512493e+02 1.2500000000e+02 0.0000e+00 0.0000e+00
      -15  1    3    3    0    0 +2.5018467165e+01 -1.0203020021e+01 -4.9599388006e+01 5.6509134982e+01 1.7770000000e+00 0.0000e+00 -1.0000e+00
       15  1    3    3    0    0 -1.0636232963e+01 -1.8433608782e+01 -1.4986410556e+01 2.6089799055e+01 1.7770000000e+00 0.0000e+00 -1.0000e+00
       22  1    3    3    0    0 -1.4382234201e+01 +2.8636628803e+01 +3.3343740077e+01 4.6246190894e+01 0.0000000000e+00 0.0000e+00 -1.0000e+00
<mgrwt>
<rscale>  2 0.12500000E+03</rscale>
<asrwt>0</asrwt>
<pdfrwt beam="1">  1       21 0.71766962E-02 0.12500000E+03</pdfrwt>
<pdfrwt beam="2">  1       21 0.11771116E-01 0.12500000E+03</pdfrwt>
<totfact> 0.88307173E+06</totfact>
</mgrwt>
</event>
<event>
 6      0 +1.3698540e+00 1.25000000e+02 7.54677100e-03 1.12640300e-01
       21 -1    0    0  502  501 +0.0000000000e+00 +0.0000000000e+00 +6.8527674396e+00 6.8527674396e+00 0.0000000000e+00 0.0000e+00 1.0000e+00
       21 -1    0    0  501  502 -0.0000000000e+00 -0.0000000000e+00 -5.7002518099e+02 5.7002518099e+02 0.0000000000e+00 0.0000e+00 1.0000e+00
       25  2    1    2    0    0 +0.0000000000e+00 +0.0000000000e+00 -5.6317241355e+02 5.7687794843e+02 1.2500000000e+02 0.0000e+00 0.0000e+00
      -15  1    3    3    0    0 -2.2922302212e+01 -1.7695726975e+01 -1.1742255800e+02 1.2095365041e+02 1.7770000000e+00 0.0000e+00 -1.0000e+00
       15  1    3    3    0    0 -2.8524961499e+01 +2.6605907806e+01 -1.2513572416e+02 1.3108644075e+02 1.7770000000e+00 0.0000e+00 -1.0000e+00
       22  1    3    3    0    0 +5.1447263711e+01 -8.9101808306e+00 -3.2061413138e+02 3.2483785726e+02 0.0000000000e+00 0.0000e+00 -1.0000e+00
<mgrwt>
<rscale>  2 0.12500000E+03</rscale>
<asrwt>0</asrwt>
<pdfrwt beam="1">  1       21 0.10077597E-02 0.12500000E+03</pdfrwt>
<pdfrwt beam="2">  1       21 0.83827247E-01 0.12500000E+03</pdfrwt>
<totfact> 0.40014723E+06</totfact>
</mgrwt>
</event>
<event>
 6      0 +1.3698540e+00 1.25000000e+02 7.54677100e-03 1.12640300e-01
       21 -1    0    0  502  501 +0.0000000000e+00 +0.0000000000e+00 +1.4004287958e+02 1.4004287958e+02 0.0000000000e+00 0.0000e+00 -1.0000e+00
       21 -1    0    0  501  502 -0.0000000000e+00 -0.0000000000e+00 -2.7893242496e+01 2.7893242496e+01 0.0000000000e+00 0.0000e+00 -1.0000e+00
       25  2    1    2    0    0 +0.0000000000e+00 +0.0000000000e+00 +1.1214963708e+02 1.6793612208e+02 1.2500000000e+02 0.0000e+00 0.0000e+00
      -15  1    3    3    0    0 -2.8246524648e+01 -4.3722776847e+01 +4.2691607195e+01 6.7344475823e+01 1.7770000000e+00 0.0000e+00 1.0000e+00
       15  1    3    3    0    0 +6.0678850353e+00 +8.6512784105e+00 +5.5928735795e+01 5.6945983735e+01 1.7770000000e+00 0.0000e+00 1.0000e+00
       22  1    3    3    0    0 +2.2178639613e+01 +3.5071498437e+01 +1.3529294083e+01 4.3645662512e+01 0.0000000000e+00 0.0000e+00 -1.0000e+00
<mgrwt>
<rscale>  2 0.12500000E+03</rscale>
<asrwt>0</asrwt>
<pdfrwt beam="1">  1       21 0.20594541E-01 0.12500000E+03</pdfrwt>
<pdfrwt beam="2">  1       21 0.41019475E-02 0.12500000E+03</pdfrwt>
<totfact> 0.81693211E+06</totfact>
</mgrwt>
</event>
<event>
 6      0 +1.3698540e+00 1.25000000e+02 7.54677100e-03 1.12640300e-01
       21 -1    0    0  502  501 +0.0000000000e+00 +0.0000000000e+00 +1.2126198390e+02 1.2126198390e+02 0.0000000000e+00 0.0000e+00 -1.0000e+00
       21 -1    0    0  501  502 -0.0000000000e+00 -0.0000000000e+00 -3.2213311001e+01 3.2213311001e+01 0.0000000000e+00 0.0000e+00 -1.0000e+00
       25  2    1    2    0    0 +0.0000000000e+00 +0.0000000000e+00 +8.9048672901e+01 1.5347529490e+02 1.2500000000e+02 0.0000e+00 0.0000e+00
      -15  1    3    3    0    0 -1.5923604111e+01 -3.5760681760e+01 -1.5257159088e+01 4.2051470371e+01 1.7770000000e+00 0.0000e+00 1.0000e+00
       15  1    3    3    0    0 +1.5921981020e+01 +3.5753037045e+01 +1.0428281143e+02 1.1139951358e+02 1.7770000000e+00 0.0000e+00 1.0000e+00
       22  1    3    3    0    0 +1.6230909098e-03 +7.6447155587e-03 +2.3020561186e-02 2.4310950976e-02 0.0000000000e+00 0.0000e+00 -1.0000e+00
<mgrwt>
<rscale>  2 0.12500000E+03</rscale>
<asrwt>0</asrwt>
<pdfrwt beam="1">  1       21 0.17832645E-01 0.12500000E+03</pdfrwt>
<pdfrwt beam="2">  1       21 0.47372517E-02 0.12500000E+03</pdfrwt>
<totfact> 0.84046806E+06</totfact>
</mgrwt>
</event>
<event>
 6      0 +1.3698540e+00 1.25000000e+02 7.54677100e-03 1.12640300e-01
       21 -1    0    0  502  501 +0.0000000000e+00 +0.0000000000e+00 +1.7301305958e+02 1.7301305958e+02 0.0000000000e+00 0.0000e+00 -1.0000e+00
       21 -1    0    0  501  502 -0.0000000000e+00 -0.0000000000e+00 -2.2577775397e+01 2.2577775397e+01 0.0000000000e+00 0.0000e+00 -1.0000e+00
       25  2    1    2    0    0 +0.0000000000e+00 +0.0000000000e+00 +1.5043528419e+02 1.9559083498e+02 1.2500000000e+02 0.0000e+00 0.0000e+00
      -15  1    3    3    0    0 +2.3196591980e+01 -3.9941738331e+00 +9.3088018430e+01 9.6034224152e+01 1.7770000000e+00 0.0000e+00 -1.0000e+00
       15  1    3    3    0    0 -3.1821709400e+01 +1.6796221750e+01 +7.0568168459e+01 7.9232306434e+01 1.7770000000e+00 0.0000e+00 -1.0000e+00
       22  1    3    3    0    0 +8.6251174192e+00 -1.2802047917e+01 -1.3220902694e+01 2.0324304402e+01 0.0000000000e+00 0.0000e+00 -1.0000e+00
<mgrwt>
<rscale>  2 0.12500000E+03</rscale>
<asrwt>0</asrwt>
<pdfrwt beam="1">  1       21 0.25443096E-01 0.12500000E+03</pdfrwt>
<pdfrwt beam="2">  1       21 0.33202612E-02 0.12500000E+03</pdfrwt>
<totfact> 0.77467179E+06</totfact>
</mgrwt>
</event>
<event>
 6      0 +1.3698540e+00 1.25000000e+02 7.54677100e-03 1.12640300e-01
       21 -1    0    0  502  501 +0.0000000000e+00 +0.0000000000e+00 +6.6107507459e+00 6.6107507459e+00 0.0000000000e+00 0.0000e+00 -1.0000e+00
       21 -1    0    0  501  502 -0.0000000000e+00 -0.0000000000e+00 -5.9089355357e+02 5.9089355357e+02 0.0000000000e+00 0.0000e+00 -1.0000e+00
       25  2    1    2    0    0 +0.0000000000e+00 +0.0000000000e+00 -5.8428280282e+02 5.9750430432e+02 1.2500000000e+02 0.0000e+00 0.0000e+00
      -15  1    3    3    0    0 +3.8006760403e+00 -3.0652917190e+01 -1.0107479128e+02 1.0570391494e+02 1.7770000000e+00 0.0000e+00 -1.0000e+00
       15  1    3    3    0    0 +3.4055089460e+01 +3.6004949915e+01 -2.0164222349e+02 2.0765078752e+02 1.7770000000e+00 0.0000e+00 -1.0000e+00
       22  1    3    3    0    0 -3.7855765501e+01 -5.3520327242e+00 -2.8156578786e+02 2.8414960167e+02 0.0000000000e+00 0.0000e+00 -1.0000e+00
<mgrwt>
<rscale>  2 0.12500000E+03</rscale>
<asrwt>0</asrwt>
<pdfrwt beam="1">  1       21 0.97216916E-03 0.12500000E+03</pdfrwt>
<pdfrwt beam="2">  1       21 0.86896117E-01 0.12500000E+03</pdfrwt>
<totfact> 0.38684354E+06</totfact>
</mgrwt>
</event>
<event>
 6      0 +1.3698540e+00 1.25000000e+02 7.54677100e-03 1.12640300e-01
       21 -1    0    0  502  501 +0.0000000000e+00 +0.0000000000e+00 +1.4340031744e+02 1.4340031744e+02 0.0000000000e+00 0.0000e+00 1.0000e+00
       21 -1    0    0  501  502 -0.0000000000e+00 -0.0000000000e+00 -2.7240176799e+01 2.7240176799e+01 0.0000000000e+00 0.0000e+00 1.0000e+00
       25  2    1    2    0    0 +0.0000000000e+00 +0.0000000000e+00 +1.1616014064e+02 1.7064049424e+02 1.2500000000e+02 0.0000e+00 0.0000e+00
      -15  1    3    3    0    0 +5.2008211260e+00 +1.6786348188e+01 +9.8344402757e+01 9.9918012933e+01 1.7770000000e+00 0.0000e+00 -1.0000e+00
       15  1    3    3    0    0 -1.0427861677e+01 -1.2382610696e+01 +4.2287004135e+01 4.5314653199e+01 1.7770000000e+00 0.0000e+00 -1.0000e+00
       22  1    3    3    0    0 +5.2270405514e+00 -4.4037374920e+00 -2.4471266254e+01 2.5407828104e+01 0.0000000000e+00 0.0000e+00 -1.0000e+00
<mgrwt>
<rscale>  2 0.12500000E+03</rscale>
<asrwt>0</asrwt>
<pdfrwt beam="1">  1       21 0.21088282E-01 0.12500000E+03</pdfrwt>
<pdfrwt beam="2">  1       21 0.40059084E-02 0.12500000E+03</pdfrwt>
<totfact> 0.81262662E+06</totfact>
</mgrwt>
</event>
<event>
 6      0 +1.3698540e+00 1.25000000e+02 7.54677100e-03 1.12640300e-01
       21 -1    0    0  502  501 +0.0000000000e+00 +0.0000000000e+00 +8.2851496584e+00 8.2851496584e+00 0.0000000000e+00 0.0000e+00 -1.0000e+00
       21 -1    0    0  501  502 -0.0000000000e+00 -0.0000000000e+00 -4.7147609410e+02 4.7147609410e+02 0.0000000000e+00 0.0000e+00 -1.0000e+00
       25  2    1    2    0    0 +0.0000000000e+00 +0.0000000000e+00 -4.6319094445e+02 4.7976124376e+02 1.2500000000e+02 0.0000e+00 0.0000e+00
      -15  1    3    3    0    0 +1.0624755670e+01 -1.0423365067e+01 -1.1262328082e+02 1.1361642964e+02 1.7770000000e+00 0.0000e+00 -1.0000e+00
       15  1    3    3    0    0 -4.4145888897e+01 -2.4643602065e+01 -1.1502723855e+02 1.2566061423e+02 1.7770000000e+00 0.0000e+00 -1.0000e+00
       22  1    3    3    0    0 +3.3521133227e+01 +3.5066967131e+01 -2.3554042517e+02 2.4048420000e+02 0.0000000000e+00 0.0000e+00 -1.0000e+00
<mgrwt>
<rscale>  2 0.12500000E+03</rscale>
<asrwt>0</asrwt>
<pdfrwt beam="1">  1       21 0.12184042E-02 0.12500000E+03</pdfrwt>
<pdfrwt beam="2">  1       21 0.69334731E-01 0.12500000E+03</pdfrwt>
<totfact> 0.46870671E+06</totfact>
</mgrwt>
</event>
<event>
 6      0 +1.3698540e+00 1.25000000e+02 7.54677100e-03 1.12640300e-01
       21 -1    0    0  502  501 +0.0000000000e+00 +0.0000000000e+00 +1.9129798431e+01 1.9129798431e+01 0.0000000000e+00 0.0000e+00 -1.0000e+00
       21 -1    0    0  501  502 -0.0000000000e+00 -0.0000000000e+00 -2.0419713328e+02 2.0419713328e+02 0.0000000000e+00 0.0000e+00 -1.0000e+00
       25  2    1    2    0    0 +0.0000000000e+00 +0.0000000000e+00 -1.8506733485e+02 2.2332693171e+02 1.2500000000e+02 0.0000e+00 0.0000e+00
      -15  1    3    3    0    0 +2.7898175795e+01 -5.9747213782e+00 -1.5252855946e+02 1.5518416378e+02 1.7770000000e+00 0.0000e+00 -1.0000e+00
       15  1    3    3    0    0 -3.6409889318e+01 +1.6012564289e+01 -3.6893205653e+01 5.4280278257e+01 1.7770000000e+00 0.0000e+00 -1.0000e+00
       22  1    3    3    0    0 +8.5117135234e+00 -1.0037842910e+01 +4.3544302553e+00 1.3862489683e+01 0.0000000000e+00 0.0000e+00 -1.0000e+00
<mgrwt>
<rscale>  2 0.12500000E+03</rscale>
<asrwt>0</asrwt>
<pdfrwt beam="1">  1       21 0.28132058E-02 0.12500000E+03</pdfrwt>
<pdfrwt beam="2">  1       21 0.30028989E-01 0.12500000E+03</pdfrwt>
<totfact> 0.73538705E+06</totfact>
</mgrwt>
</event>
<event>
 6      0 +1.3698540e+00 1.25000000e+02 7.54677100e-03 1.12640300e-01
       21 -1    0    0  502  501 +0.0000000000e+00 +0.0000000000e+00 +2.1647730360e+01 2.1647730360e+01 0.0000000000e+00 0.0000e+00 -1.0000e+00
       21 -1    0    0  501  502 -0.0000000000e+00 -0.0000000000e+00 -1.8044616849e+02 1.8044616849e+02 0.0000000000e+00 0.0000e+00 -1.0000e+00
       25  2    1    2    0    0 +0.0000000000e+00 +0.0000000000e+00 -1.5879843813e+02 2.0209389885e+02 1.2500000000e+02 0.0000e+00 0.0000e+00
      -15  1    3    3    0    0 +7.4999438685e+00 +1.5225072567e+01 +9.2743271406e+00 1.9422226073e+01 1.7770000000e+00 0.0000e+00 -1.0000e+00
       15  1    3    3    0    0 -6.1102967813e+00 -4.3101303618e+01 -1.0656997401e+02 1.1513199030e+02 1.7770000000e+00 0.0000e+00 -1.0000e+00
       22  1    3    3    0    0 -1.3896470872e+00 +2.7876231051e+01 -6.1502791263e+01 6.7539682482e+01 0.0000000000e+00 0.0000e+00 -1.0000e+00
<mgrwt>
<rscale>  2 0.12500000E+03</rscale>
<asrwt>0</asrwt>
<pdfrwt beam="1">  1       21 0.31834899E-02 0.12500000E+03</pdfrwt>
<pdfrwt beam="2">  1       21 0.26536200E-01 0.12500000E+03</pdfrwt>
<totfact> 0.76514473E+06</totfact>
</mgrwt>
</event>
<event>
 6      0 +1.3698540e+00 1.25000000e+02 7.54677100e-03 1.12640300e-01
       21 -1    0    0  502  501 +0.0000000000e+00 +0.0000000000e+00 +2.9211240356e+01 2.9211240356e+01 0.0000000000e+00 0.0000e+00 -1.0000e+00
       21 -1    0    0  501  502 -0.0000000000e+00 -0.0000000000e+00 -1.3372420864e+02 1.3372420864e+02 0.0000000000e+00 0.0000e+00 -1.0000e+00
       25  2    1    2    0    0 +0.0000000000e+00 +0.0000000000e+00 -1.0451296828e+02 1.6293544900e+02 1.2500000000e+02 0.0000e+00 0.0000e+00
      -15  1    3    3    0    0 +2.5171610980e+01 -1.8715058213e+01 -6.2929583285e+00 3.2040949686e+01 1.7770000000e+00 0.0000e+00 -1.0000e+00
       15  1    3    3    0    0 -6.3577879693e+00 +4.2929321514e+01 -2.1895953017e+01 4.8640914886e+01 1.7770000000e+00 0.0000e+00 -1.0000e+00
       22  1    3    3    0    0 -1.8813823011e+01 -2.4214263301e+01 -7.6324056927e+01 8.2253584416e+01 0.0000000000e+00 0.0000e+00 -1.0000e+00
<mgrwt>
<rscale>  2 0.12500000E+03</rscale>
<asrwt>0</asrwt>
<pdfrwt beam="1">  1       21 0.42957707E-02 0.12500000E+03</pdfrwt>
<pdfrwt beam="2">  1       21 0.19665324E-01 0.12500000E+03</pdfrwt>
<totfact> 0.82501291E+06</totfact>
</mgrwt>
</event>
<event>
 6      0 +1.3698540e+00 1.25000000e+02 7.54677100e-03 1.12640300e-01
       21 -1    0    0  502  501 +0.0000000000e+00 +0.0000000000e+00 +7.0145153090e+01 7.0145153090e+01 0.0000000000e+00 0.0000e+00 -1.0000e+00
       21 -1    0    0  501  502 -0.0000000000e+00 -0.0000000000e+00 -5.5688095726e+01 5.5688095726e+01 0.0000000000e+00 0.0000e+00 -1.0000e+00
       25  2    1    2    0    0 +0.0000000000e+00 +0.0000000000e+00 +1.4457057364e+01 1.2583324882e+02 1.2500000000e+02 0.0000e+00 0.0000e+00
      -15  1    3    3    0    0 -3.4106956360e+01 -2.7543771493e+01 -2.1194189693e+01 4.8726740358e+01 1.7770000000e+00 0.0000e+00 -1.0000e+00
       15  1    3    3    0    0 -3.6667447450e+00 +1.1350634394e+01 +3.3888520226e+01 3.5970424661e+01 1.7770000000e+00 0.0000e+00 -1.0000e+00
       22  1    3    3    0    0 +3.7773701105e+01 +1.6193137098e+01 +1.7627268306e+00 4.1136083797e+01 0.0000000000e+00 0.0000e+00 -1.0000e+00
<mgrwt>
<rscale>  2 0.12500000E+03</rscale>
<asrwt>0</asrwt>
<pdfrwt beam="1">  1       21 0.10315464E-01 0.12500000E+03</pdfrwt>
<pdfrwt beam="2">  1       21 0.81894258E-02 0.12500000E+03</pdfrwt>
<totfact> 0.88842033E+06</totfact>
</mgrwt>
</event>
<event>
 6      0 +1.3698540e+00 1.25000000e+02 7.54677100e-03 1.12640300e-01
       21 -1    0    0  502  501 +0.0000000000e+00 +0.0000000000e+00 +1.2672851471e+02 1.2672851471e+02 0.0000000000e+00 0.0000e+00 1.0000e+00
       21 -1    0    0  501  502 -0.0000000000e+00 -0.0000000000e+00 -3.0823765346e+01 3.0823765346e+01 0.0000000000e+00 0.0000e+00 1.0000e+00
       25  2    1    2    0    0 +0.0000000000e+00 +0.0000000000e+00 +9.5904749360e+01 1.5755228005e+02 1.2500000000e+02 0.0000e+00 0.0000e+00
      -15  1    3    3    0    0 +2.7362478503e+01 -4.7919264443e+00 +8.6066955987e+01 9.0456323332e+01 1.7770000000e+00 0.0000e+00 -1.0000e+00
       15  1    3    3    0    0 +1.6409140626e+01 -9.7458685963e+00 -2.5553915522e+00 1.9337259520e+01 1.7770000000e+00 0.0000e+00 -1.0000e+00
       22  1    3    3    0    0 -4.3771619129e+01 +1.4537795041e+01 +1.2393184928e+01 4.7758697202e+01 0.0000000000e+00 0.0000e+00 -1.0000e+00
<mgrwt>
<rscale>  2 0.12500000E+03</rscale>
<asrwt>0</asrwt>
<pdfrwt beam="1">  1       21 0.18636546E-01 0.12500000E+03</pdfrwt>
<pdfrwt beam="2">  1       21 0.45329067E-02 0.12500000E+03</pdfrwt>
<totfact> 0.83377594E+06</totfact>
</mgrwt>
</event>
<event>
 6      0 +1.3698540e+00 1.25000000e+02 7.54677100e-03 1.12640300e-01
       21 -1    0    0  502  501 +0.0000000000e+00 +0.0000000000e+00 +9.8426903631e+00 9.8426903631e+00 0.0000000000e+00 0.0000e+00 1.0000e+00
       21 -1    0    0  501  502 -0.0000000000e+00 -0.0000000000e+00 -3.9686811795e+02 3.9686811795e+02 0.0000000000e+00 0.0000e+00 1.0000e+00
       25  2    1    2    0    0 +0.0000000000e+00 +0.0000000000e+00 -3.8702542759e+02 4.0671080832e+02 1.2500000000e+02 0.0000e+00 0.0000e+00
      -15  1    3    3    0    0 +1.9439251971e+01 +3.2145893169e+01 -3.5259231162e+02 3.5459235597e+02 1.7770000000e+00 0.0000e+00 1.0000e+00
       15  1    3    3    0    0 -1.9577437790e+01 -3.2387490045e+01 -3.1779204295e+01 4.9449986213e+01 1.7770000000e+00 0.0000e+00 1.0000e+00
       22  1    3    3    0    0 +1.3818581891e-01 +2.4159687608e-01 -2.6539116347e+00 2.6684661016e+00 0.0000000000e+00 0.0000e+00 1.0000e+00
<mgrwt>
<rscale>  2 0.12500000E+03</rscale>
<asrwt>0</asrwt>
<pdfrwt beam="1">  1       21 0.14474543E-02 0.12500000E+03</pdfrwt>
<pdfrwt beam="2">  1       21 0.58362966E-01 0.12500000E+03</pdfrwt>
<totfact> 0.53040540E+06</totfact>
</mgrwt>
</event>
<event>
 6      0 +1.3698540e+00 1.25000000e+02 7.54677100e-03 1.12640300e-01
       21 -1    0    0  502  501 +0.0000000000e+00 +0.0000000000e+00 +1.0349206010e+01 1.0349206010e+01 0.0000000000e+00 0.0000e+00 1.0000e+00
       21 -1    0    0  501  502 -0.0000000000e+00 -0.0000000000e+00 -3.7744441421e+02 3.7744441421e+02 0.0000000000e+00 0.0000e+00 1.0000e+00
       25  2    1    2    0    0 +0.0000000000e+00 +0.0000000000e+00 -3.6709520820e+02 3.8779362022e+02 1.2500000000e+02 0.0000e+00 0.0000e+00
      -15  1    3    3    0    0 -3.2785428653e+01 -2.0444678571e+01 -1.0696380188e+02 1.1374217272e+02 1.7770000000e+00 0.0000e+00 -1.0000e+00
       15  1    3    3    0    0 -2.5433524171e+01 +4.9685431642e+00 -8.0765965492e+01 8.4840140758e+01 1.7770000000e+00 0.0000e+00 -1.0000e+00
       22  1    3    3    0    0 +5.8218952824e+01 +1.5476135407e+01 -1.7936544083e+02 1.8921130674e+02 0.0000000000e+00 0.0000e+00 -1.0000e+00
<mgrwt>
<rscale>  2 0.12500000E+03</rscale>
<asrwt>0</asrwt>
<pdfrwt beam="1">  1       21 0.15219422E-02 0.12500000E+03</pdfrwt>
<pdfrwt beam="2">  1       21 0.55506526E-01 0.12500000E+03</pdfrwt>
<totfact> 0.54798680E+06</totfact>
</mgrwt>
</event>
<event>
 6      0 +1.3698540e+00 1.25000000e+02 7.54677100e-03 1.12640300e-01
       21 -1    0    0  502  501 +0.0000000000e+00 +0.0000000000e+00 +1.9088002628e+01 1.9088002628e+01 0.0000000000e+00 0.0000e+00 -1.0000e+00
       21 -1    0    0  501  502 -0.0000000000e+00 -0.0000000000e+00 -2.0464425095e+02 2.0464425095e+02 0.0000000000e+00 0.0000e+00 -1.0000e+00
       25  2    1    2    0    0 +0.0000000000e+00 +0.0000000000e+00 -1.8555624833e+02 2.2373225358e+02 1.2500000000e+02 0.0000e+00 0.0000e+00
      -15  1    3    3    0    0 +1.5998929125e+01 -6.9051885973e+00 -8.4476055055e+01 8.6272875050e+01 1.7770000000e+00 0.0000e+00 -1.0000e+00
       15  1    3    3    0    0 -2.7603605348e+01 -3.7031366718e+01 -3.8711621946e+01 6.0291197963e+01 1.7770000000e+00 0.0000e+00 -1.0000e+00
       22  1    3    3    0    0 +1.1604676222e+01 +4.3936555315e+01 -6.2368571342e+01 7.7168180582e+01 0.0000000000e+00 0.0000e+00 -1.0000e+00
<mgrwt>
<rscale>  2 0.12500000E+03</rscale>
<asrwt>0</asrwt>
<pdfrwt beam="1">  1       21 0.28070591E-02 0.12500000E+03</pdfrwt>
<pdfrwt beam="2">  1       21 0.30094744E-01 0.12500000E+03</pdfrwt>
<totfact> 0.73483586E+06</totfact>
</mgrwt>
</event>
<event>
 6      0 +1.3698540e+00 1.25000000e+02 7.54677100e-03 1.12640300e-01
       21 -1    0    0  502  501 +0.0000000000e+00 +0.0000000000e+00 +3.2851076070e+01 3.2851076070e+01 0.0000000000e+00 0.0000e+00 1.0000e+00
       21 -1    0    0  501  502 -0.0000000000e+00 -0.0000000000e+00 -1.1890782487e+02 1.1890782487e+02 0.0000000000e+00 0.0000e+00 1.0000e+00
       25  2    1    2    0    0 +0.0000000000e+00 +0.0000000000e+00 -8.6056748795e+01 1.5175890094e+02 1.2500000000e+02 0.0000e+00 0.0000e+00
      -15  1    3    3    0    0 +1.5529040481e+01 +2.3197552732e+01 -2.3236024698e+01 3.6364104880e+01 1.7770000000e+00 0.0000e+00 -1.0000e+00
       15  1    3    3    0    0 +3.6801282354e+01 -2.3553148054e+00 -4.0508392030e+01 5.4808479678e+01 1.7770000000e+00 0.0000e+00 -1.0000e+00
       22  1    3    3    0    0 -5.2330322835e+01 -2.0842237927e+01 -2.2312332064e+01 6.0586316375e+01 0.0000000000e+00 0.0000e+00 -1.0000e+00
<mgrwt>
<rscale>  2 0.12500000E+03</rscale>
<asrwt>0</asrwt>
<pdfrwt beam="1">  1       21 0.48310408E-02 0.12500000E+03</pdfrwt>
<pdfrwt beam="2">  1       21 0.17486444E-01 0.12500000E+03</pdfrwt>
<totfact> 0.84331544E+06</totfact>
</mgrwt>
</event>
<event>
 6      0 +1.3698540e+00 1.25000000e+02 7.54677100e-03 1.12640300e-01
       21 -1    0    0  502  501 +0.0000000000e+00 +0.0000000000e+00 +2.6773923086e+01 2.6773923086e+01 0.0000000000e+00 0.0000e+00 1.0000e+00
       21 -1    0    0  501  502 -0.0000000000e+00 -0.0000000000e+00 -1.4589755814e+02 1.4589755814e+02 0.0000000000e+00 0.0000e+00 1.0000e+00
       25  2    1    2    0    0 +0.0000000000e+00 +0.0000000000e+00 -1.1912363505e+02 1.7267148122e+02 1.2500000000e+02 0.0000e+00 0.0000e+00
      -15  1    3    3    0    0 +1.0595361123e+01 +2.0740399020e+01 -8.9434002625e-01 2.3374845495e+01 1.7770000000e+00 0.0000e+00 -1.0000e+00
       15  1    3    3    0    0 +2.9660827249e+01 -3.2491128966e+01 -3.5548714464e+01 5.6588929692e+01 1.7770000000e+00 0.0000e+00 -1.0000e+00
       22  1    3    3    0    0 -4.0256188372e+01 +1.1750729946e+01 -8.2680580563e+01 9.2707706037e+01 0.0000000000e+00 0.0000e+00 -1.0000e+00
<mgrwt>
<rscale>  2 0.12500000E+03</rscale>
<asrwt>0</asrwt>
<pdfrwt beam="1">  1       21 0.39373416E-02 0.12500000E+03</pdfrwt>
<pdfrwt beam="2">  1       21 0.21455523E-01 0.12500000E+03</pdfrwt>
<totfact> 0.80942369E+06</totfact>
</mgrwt>
</event>
<event>
 6      0 +1.3698540e+00 1.25000000e+02 7.54677100e-03 1.12640300e-01
       21 -1    0    0  502  501 +0.0000000000e+00 +0.0000000000e+00 +1.4435181425e+02 1.4435181425e+02 0.0000000000e+00 0.0000e+00 -1.0000e+00
       21 -1    0    0  501  502 -0.0000000000e+00 -0.0000000000e+00 -2.7060622828e+01 2.7060622828e+01 0.0000000000e+00 0.0000e+00 -1.0000e+00
       25  2    1    2    0    0 +0.0000000000e+00 +0.0000000000e+00 +1.1729119142e+02 1.7141243708e+02 1.2500000000e+02 0.0000e+00 0.0000e+00
      -15  1    3    3    0    0 -3.8239016169e+01 -2.2249954475e+01 +1.1851904499e+02 1.2651958183e+02 1.7770000000e+00 0.0000e+00 1.0000e+00
       15  1    3    3    0    0 +3.8424026187e+01 +2.2491611714e+01 -1.1278666700e+00 4.4572504957e+01 1.7770000000e+00 0.0000e+00 1.0000e+00
       22  1    3    3    0    0 -1.8501001839e-01 -2.4165723920e-01 -9.9986902377e-02 3.2035029080e-01 0.0000000000e+00 0.0000e+00 1.0000e+00
<mgrwt>
<rscale>  2 0.12500000E+03</rscale>
<asrwt>0</asrwt>
<pdfrwt beam="1">  1       21 0.21228208E-01 0.12500000E+03</pdfrwt>
<pdfrwt beam="2">  1       21 0.39795034E-02 0.12500000E+03</pdfrwt>
<totfact> 0.81140625E+06</totfact>
</mgrwt>
</event>
<event>
 6      0 +1.3698540e+00 1.25000000e+02 7.54677100e-03 1.12640300e-01
       21 -1    0    0  502  501 +0.0000000000e+00 +0.0000000000e+00 +1.3093314091e+01 1.3093314091e+01 0.0000000000e+00 0.0000e+00 1.0000e+00
       21 -1    0    0  501  502 -0.0000000000e+00 -0.0000000000e+00 -2.9833928773e+02 2.9833928773e+02 0.0000000000e+00 0.0000e+00 1.0000e+00
       25  2    1    2    0    0 +0.0000000000e+00 +0.0000000000e+00 -2.8524597364e+02 3.1143260182e+02 1.2500000000e+02 0.0000e+00 0.0000e+00
      -15  1    3    3    0    0 +1.9879286299e+01 -6.0755538808e+00 -1.7209985117e+02 1.7335978450e+02 1.7770000000e+00 0.0000e+00 -1.0000e+00
       15  1    3    3    0    0 +1.5423279003e+01 -1.9034719491e+01 -7.9533737437e+01 8.3240442100e+01 1.7770000000e+00 0.0000e+00 -1.0000e+00
       22  1    3    3    0    0 -3.5302565303e+01 +2.5110273372e+01 -3.3612385043e+01 5.4832375236e+01 0.0000000000e+00 0.0000e+00 -1.0000e+00
<mgrwt>
<rscale>  2 0.12500000E+03</rscale>
<asrwt>0</asrwt>
<pdfrwt beam="1">  1       21 0.19254873E-02 0.12500000E+03</pdfrwt>
<pdfrwt beam="2">  1       21 0.43873427E-01 0.12500000E+03</pdfrwt>
<totfact> 0.62654365E+06</totfact>
</mgrwt>
</event>
<event>
 6      0 +1.3698540e+00 1.25000000e+02 7.54677100e-03 1.12640300e-01
       21 -1    0    0  502  501 +0.0000000000e+00 +0.0000000000e+00 +2.2194032615e+02 2.2194032615e+02 0.0000000000e+00 0.0000e+00 1.0000e+00
       21 -1    0    0  501  502 -0.0000000000e+00 -0.0000000000e+00 -1.7600451742e+01 1.7600451742e+01 0.0000000000e+00 0.0000e+00 1.0000e+00
       25  2    1    2    0    0 +0.0000000000e+00 +0.0000000000e+00 +2.0433987441e+02 2.3954077789e+02 1.2500000000e+02 0.0000e+00 0.0000e+00
      -15  1    3    3    0    0 +2.0923164151e+01 -1.0947492081e+01 +3.6437149891e+00 2.3959565290e+01 1.7770000000e+00 0.0000e+00 -1.0000e+00
       15  1    3    3    0    0 -4.6103476315e+01 +1.9711834610e+01 +1.0723913507e+02 1.1839542547e+02 1.7770000000e+00 0.0000e+00 -1.0000e+00
       22  1    3    3    0    0 +2.5180312164e+01 -8.7643425290e+00 +9.3457024365e+01 9.7185787149e+01 0.0000000000e+00 0.0000e+00 -1.0000e+00
<mgrwt>
<rscale>  2 0.12500000E+03</rscale>
<asrwt>0</asrwt>
<pdfrwt beam="1">  1       21 0.32638282E-01 0.12500000E+03</pdfrwt>
<pdfrwt beam="2">  1       21 0.25883019E-02 0.12500000E+03</pdfrwt>
<totfact> 0.71367237E+06</totfact>
</mgrwt>
</event>
<event>
 6      0 +1.3698540e+00 1.25000000e+02 7.54677100e-03 1.12640300e-01
       21 -1    0    0  502  501 +0.0000000000e+00 +0.0000000000e+00 +2.7512460324e+01 2.7512460324e+01 0.0000000000e+00 0.0000e+00 1.0000e+00
       21 -1    0    0  501  502 -0.0000000000e+00 -0.0000000000e+00 -1.4198112251e+02 1.4198112251e+02 0.0000000000e+00 0.0000e+00 1.0000e+00
       25  2    1    2    0    0 +0.0000000000e+00 +0.0000000000e+00 -1.1446866219e+02 1.6949358284e+02 1.2500000000e+02 0.0000e+00 0.0000e+00
      -15  1    3    3    0    0 -9.9678776111e+00 +2.2300879072e+01 -1.6375554526e+01 2.9461912811e+01 1.7770000000e+00 0.0000e+00 -1.0000e+00
       15  1    3    3    0    0 -1.2630115348e+01 -4.9342496725e+01 -2.0727991848e+01 5.5018262166e+01 1.7770000000e+00 0.0000e+00 -1.0000e+00
       22  1    3    3    0    0 +2.2597992959e+01 +2.7041617653e+01 -7.7365115816e+01 8.5013407862e+01 0.0000000000e+00 0.0000e+00 -1.0000e+00
<mgrwt>
<rscale>  2 0.12500000E+03</rscale>
<asrwt>0</asrwt>
<pdfrwt beam="1">  1       21 0.40459500E-02 0.12500000E+03</pdfrwt>
<pdfrwt beam="2">  1       21 0.20879577E-01 0.12500000E+03</pdfrwt>
<totfact> 0.81444675E+06</totfact>
</mgrwt>
</event>
<event>
 6      0 +1.3698540e+00 1.25000000e+02 7.54677100e-03 1.12640300e-01
       21 -1    0    0  502  501 +0.0000000000e+00 +0.0000000000e+00 +1.8445381762e+03 1.8445381762e+03 0.0000000000e+00 0.0000e+00 -1.0000e+00
       21 -1    0    0  501  502 -0.0000000000e+00 -0.0000000000e+00 -2.1177387654e+00 2.1177387654e+00 0.0000000000e+00 0.0000e+00 -1.0000e+00
       25  2    1    2    0    0 +0.0000000000e+00 +0.0000000000e+00 +1.8424204374e+03 1.8466559150e+03 1.2500000000e+02 0.0000e+00 0.0000e+00
      -15  1    3    3    0    0 +8.3606658093e+00 +2.6450799272e+01 +1.8067379535e+02 1.8279968154e+02 1.7770000000e+00 0.0000e+00 -1.0000e+00
       15  1    3    3    0    0 -6.5711986724e+00 -2.3266264330e+01 +1.3851946766e+02 1.4062467905e+02 1.7770000000e+00 0.0000e+00 -1.0000e+00
       22  1    3    3    0    0 -1.7894671370e+00 -3.1845349428e+00 +1.5232271594e+03 1.5232315393e+03 0.0000000000e+00 0.0000e+00 -1.0000e+00
<mgrwt>
<rscale>  2 0.12500000E+03</rscale>
<asrwt>0</asrwt>
<pdfrwt beam="1">  1       21 0.27125449E+00 0.12500000E+03</pdfrwt>
<pdfrwt beam="2">  1       21 0.31143346E-03 0.12500000E+03</pdfrwt>
<totfact> 0.66215050E+05</totfact>
</mgrwt>
</event>
<event>
 6      0 +1.3698540e+00 1.25000000e+02 7.54677100e-03 1.12640300e-01
       21 -1    0    0  502  501 +0.0000000000e+00 +0.0000000000e+00 +1.6648263592e+02 1.6648263592e+02 0.0000000000e+00 0.0000e+00 -1.0000e+00
       21 -1    0    0  501  502 -0.0000000000e+00 -0.0000000000e+00 -2.3463407931e+01 2.3463407931e+01 0.0000000000e+00 0.0000e+00 -1.0000e+00
       25  2    1    2    0    0 +0.0000000000e+00 +0.0000000000e+00 +1.4301922799e+02 1.8994604385e+02 1.2500000000e+02 0.0000e+00 0.0000e+00
      -15  1    3    3    0    0 +1.7920007729e+01 -4.5683968338e+01 +8.6434873227e+01 9.9409741369e+01 1.7770000000e+00 0.0000e+00 -1.0000e+00
       15  1    3    3    0    0 -1.5435782402e+01 +2.2699685748e+01 -1.9748723823e+00 2.7578922411e+01 1.7770000000e+00 0.0000e+00 -1.0000e+00
       22  1    3    3    0    0 -2.4842253271e+00 +2.2984282589e+01 +5.8559227148e+01 6.2957380074e+01 0.0000000000e+00 0.0000e+00 -1.0000e+00
<mgrwt>
<rscale>  2 0.12500000E+03</rscale>
<asrwt>0</asrwt>
<pdfrwt beam="1">  1       21 0.24482740E-01 0.12500000E+03</pdfrwt>
<pdfrwt beam="2">  1       21 0.34505012E-02 0.12500000E+03</pdfrwt>
<totfact> 0.78305658E+06</totfact>
</mgrwt>
</event>
<event>
 6      0 +1.3698540e+00 1.25000000e+02 7.54677100e-03 1.12640300e-01
       21 -1    0    0  502  501 +0.0000000000e+00 +0.0000000000e+00 +5.1434593014e+01 5.1434593014e+01 0.0000000000e+00 0.0000e+00 1.0000e+00
       21 -1    0    0  501  502 -0.0000000000e+00 -0.0000000000e+00 -7.5945968873e+01 7.5945968873e+01 0.0000000000e+00 0.0000e+00 1.0000e+00
       25  2    1    2    0    0 +0.0000000000e+00 +0.0000000000e+00 -2.4511375859e+01 1.2738056189e+02 1.2500000000e+02 0.0000e+00 0.0000e+00
      -15  1    3    3    0    0 +3.7469244668e+01 -4.9207641154e+00 +1.5834222207e+01 4.1012663134e+01 1.7770000000e+00 0.0000e+00 -1.0000e+00
       15  1    3    3    0    0 -2.0638312839e+01 -3.0537520599e+01 -1.6319107601e+01 4.0347876314e+01 1.7770000000e+00 0.0000e+00 -1.0000e+00
       22  1    3    3    0    0 -1.6830931829e+01 +3.5458284715e+01 -2.4026490463e+01 4.6020022437e+01 0.0000000000e+00 0.0000e+00 -1.0000e+00
<mgrwt>
<rscale>  2 0.12500000E+03</rscale>
<asrwt>0</asrwt>
<pdfrwt beam="1">  1       21 0.75639108E-02 0.12500000E+03</pdfrwt>
<pdfrwt beam="2">  1       21 0.11168525E-01 0.12500000E+03</pdfrwt>
<totfact> 0.88566432E+06</totfact>
</mgrwt>
</event>
<event>
 6      0 +1.3698540e+00 1.25000000e+02 7.54677100e-03 1.12640300e-01
       21 -1    0    0  502  501 +0.0000000000e+00 +0.0000000000e+00 +3.5092580688e+01 3.5092580688e+01 0.0000000000e+00 0.0000e+00 -1.0000e+00
       21 -1    0    0  501  502 -0.0000000000e+00 -0.0000000000e+00 -1.1131270267e+02 1.1131270267e+02 0.0000000000e+00 0.0000e+00 -1.0000e+00
       25  2    1    2    0    0 +0.0000000000e+00 +0.0000000000e+00 -7.6220121981e+01 1.4640528336e+02 1.2500000000e+02 0.0000e+00 0.0000e+00
      -15  1    3    3    0    0 -6.3317858324e+00 -1.4020689477e+01 -9.2800953875e+01 9.4084249554e+01 1.7770000000e+00 0.0000e+00 -1.0000e+00
       15  1    3    3    0    0 -7.3394491542e+00 -4.1657271815e+00 -1.2630892890e+01 1.5294377432e+01 1.7770000000e+00 0.0000e+00 -1.0000e+00
       22  1    3    3    0    0 +1.3671234987e+01 +1.8186416658e+01 +2.9211724786e+01 3.7026656368e+01 0.0000000000e+00 0.0000e+00 -1.0000e+00
<mgrwt>
<rscale>  2 0.12500000E+03</rscale>
<asrwt>0</asrwt>
<pdfrwt beam="1">  1       21 0.51606737E-02 0.12500000E+03</pdfrwt>
<pdfrwt beam="2">  1       21 0.16369515E-01 0.12500000E+03</pdfrwt>
<totfact> 0.85233505E+06</totfact>
</mgrwt>
</event>
<event>
 6      0 +1.3698540e+00 1.25000000e+02 7.54677100e-03 1.12640300e-01
       21 -1    0    0  502  501 +0.0000000000e+00 +0.0000000000e+00 +1.2193411874e+01 1.2193411874e+01 0.0000000000e+00 0.0000e+00 1.0000e+00
       21 -1    0    0  501  502 -0.0000000000e+00 -0.0000000000e+00 -3.2035742256e+02 3.2035742256e+02 0.0000000000e+00 0.0000e+00 1.0000e+00
       25  2    1    2    0    0 +0.0000000000e+00 +0.0000000000e+00 -3.0816401069e+02 3.3255083443e+02 1.2500000000e+02 0.0000e+00 0.0000e+00
      -15  1    3    3    0    0 +1.9449623867e+00 +8.9162021107e-01 -1.7336387454e+01 1.7558072908e+01 1.7770000000e+00 0.0000e+00 -1.0000e+00
       15  1    3    3    0    0 -1.3919896354e+01 +3.9358391168e+01 -2.5887350635e+02 2.6222413407e+02 1.7770000000e+00 0.0000e+00 -1.0000e+00
       22  1    3    3    0    0 +1.1974933967e+01 -4.0250011379e+01 -3.1954116933e+01 5.2768627503e+01 0.0000000000e+00 0.0000e+00 -1.0000e+00
<mgrwt>
<rscale>  2 0.12500000E+03</rscale>
<asrwt>0</asrwt>
<pdfrwt beam="1">  1       21 0.17931489E-02 0.12500000E+03</pdfrwt>
<pdfrwt beam="2">  1       21 0.47111382E-01 0.12500000E+03</pdfrwt>
<totfact> 0.60350943E+06</totfact>
</mgrwt>
</event>
<event>
 6      0 +1.3698540e+00 1.25000000e+02 7.54677100e-03 1.12640300e-01
       21 -1    0    0  502  501 +0.0000000000e+00 +0.0000000000e+00 +4.3907868348e+01 4.3907868348e+01 0.0000000000e+00 0.0000e+00 1.0000e+00
       21 -1    0    0  501  502 -0.0000000000e+00 -0.0000000000e+00 -8.8964692365e+01 8.8964692365e+01 0.0000000000e+00 0.0000e+00 1.0000e+00
       25  2    1    2    0    0 +0.0000000000e+00 +0.0000000000e+00 -4.5056824017e+01 1.3287256071e+02 1.2500000000e+02 0.0000e+00 0.0000e+00
      -15  1    3    3    0    0 -1.5306788926e+01 -5.7272911681e+01 -4.3482993908e+01 7.3541911097e+01 1.7770000000e+00 0.0000e+00 1.0000e+00
       15  1    3    3    0    0 +1.5306620710e+01 +5.7270061918e+01 -1.5736978583e+00 5.9327791832e+01 1.7770000000e+00 0.0000e+00 1.0000e+00
       22  1    3    3    0    0 +1.6821603496e-04 +2.8497626378e-03 -1.3225250071e-04 2.8577848853e-03 0.0000000000e+00 0.0000e+00 -1.0000e+00
<mgrwt>
<rscale>  2 0.12500000E+03</rscale>
<asrwt>0</asrwt>
<pdfrwt beam="1">  1       21 0.64570395E-02 0.12500000E+03</pdfrwt>
<pdfrwt beam="2">  1       21 0.13083043E-01 0.12500000E+03</pdfrwt>
<totfact> 0.87580681E+06</totfact>
</mgrwt>
</event>
<event>
 6      0 +1.3698540e+00 1.25000000e+02 7.54677100e-03 1.12640300e-01
       21 -1    0    0  502  501 +0.0000000000e+00 +0.0000000000e+00 +1.0661623278e+03 1.0661623278e+03 0.0000000000e+00 0.0000e+00 1.0000e+00
       21 -1    0    0  501  502 -0.0000000000e+00 -0.0000000000e+00 -3.6638417043e+00 3.6638417043e+00 0.0000000000e+00 0.0000e+00 1.0000e+00
       25  2    1    2    0    0 +0.0000000000e+00 +0.0000000000e+00 +1.0624984861e+03 1.0698261695e+03 1.2500000000e+02 0.0000e+00 0.0000e+00
      -15  1    3    3    0    0 -3.8639838158e+01 -1.2375506430e+01 +1.2465785906e+02 1.3110655897e+02 1.7770000000e+00 0.0000e+00 1.0000e+00
       15  1    3    3    0    0 +3.8638728683e+01 +1.2375843201e+01 +9.3783377424e+02 9.3871266034e+02 1.7770000000e+00 0.0000e+00 1.0000e+00
       22  1    3    3    0    0 +1.1094744568e-03 -3.3677088729e-04 +6.8534075518e-03 6.9507944346e-03 0.0000000000e+00 0.0000e+00 -1.0000e+00
<mgrwt>
<rscale>  2 0.12500000E+03</rscale>
<asrwt>0</asrwt>
<pdfrwt beam="1">  1       21 0.15678836E+00 0.12500000E+03</pdfrwt>
<pdfrwt beam="2">  1       21 0.53880099E-03 0.12500000E+03</pdfrwt>
<totfact> 0.19199394E+06</totfact>
</mgrwt>
</event>
<event>
 6      0 +1.3698540e+00 1.25000000e+02 7.54677100e-03 1.12640300e-01
       21 -1    0    0  502  501 +0.0000000000e+00 +0.0000000000e+00 +1.7013682065e+02 1.7013682065e+02 0.0000000000e+00 0.0000e+00 1.0000e+00
       21 -1    0    0  501  502 -0.0000000000e+00 -0.0000000000e+00 -2.2959462773e+01 2.2959462773e+01 0.0000000000e+00 0.0000e+00 1.0000e+00
       25  2    1    2    0    0 +0.0000000000e+00 +0.0000000000e+00 +1.4717735788e+02 1.9309628342e+02 1.2500000000e+02 0.0000e+00 0.0000e+00
      -15  1    3    3    0    0 +1.3091839633e+01 -1.5993632122e+01 -1.1537119940e+01 2.3737215483e+01 1.7770000000e+00 0.0000e+00 -1.0000e+00
       15  1    3    3    0    0 +1.1631991126e+01 +5.9230719894e+00 +6.2607921905e+00 1.4585652100e+01 1.7770000000e+00 0.0000e+00 -1.0000e+00
       22  1    3    3    0    0 -2.4723830758e+01 +1.0070560133e+01 +1.5245368564e+02 1.5477341585e+02 0.0000000000e+00 0.0000e+00 -1.0000e+00
<mgrwt>
<rscale>  2 0.12500000E+03</rscale>
<asrwt>0</asrwt>
<pdfrwt beam="1">  1       21 0.25020120E-01 0.12500000E+03</pdfrwt>
<pdfrwt beam="2">  1       21 0.33763917E-02 0.12500000E+03</pdfrwt>
<totfact> 0.77836774E+06</totfact>
</mgrwt>
</event>
<event>
 6      0 +1.3698540e+00 1.25000000e+02 7.54677100e-03 1.12640300e-01
       21 -1    0    0  502  501 +0.0000000000e+00 +0.0000000000e+00 +5.0062369656e+00 5.0062369656e+00 0.0000000000e+00 0.0000e+00 1.0000e+00
       21 -1    0    0  501  502 -0.0000000000e+00 -0.0000000000e+00 -7.8027668823e+02 7.8027668823e+02 0.0000000000e+00 0.0000e+00 1.0000e+00
       25  2    1    2    0    0 +0.0000000000e+00 +0.0000000000e+00 -7.7527045126e+02 7.8528292520e+02 1.2500000000e+02 0.0000e+00 0.0000e+00
      -15  1    3    3    0    0 -5.3911321448e+01 +1.6349038544e+01 -5.5729929225e+02 5.6014228596e+02 1.7770000000e+00 0.0000e+00 -1.0000e+00
       15  1    3    3    0    0 +5.3911328245e+01 -1.6349040856e+01 -2.1797109502e+02 2.2514057485e+02 1.7770000000e+00 0.0000e+00 -1.0000e+00
       22  1    3    3    0    0 -6.7968455514e-06 +2.3117830685e-06 -6.3638007330e-05 6.4041685076e-05 0.0000000000e+00 0.0000e+00 -1.0000e+00
<mgrwt>
<rscale>  2 0.12500000E+03</rscale>
<asrwt>0</asrwt>
<pdfrwt beam="1">  1       21 0.73621114E-03 0.12500000E+03</pdfrwt>
<pdfrwt beam="2">  1       21 0.11474660E+00 0.12500000E+03</pdfrwt>
<totfact> 0.28912025E+06</totfact>
</mgrwt>
</event>
<event>
 6      0 +1.3698540e+00 1.25000000e+02 7.54677100e-03 1.12640300e-01
       21 -1    0    0  502  501 +0.0000000000e+00 +0.0000000000e+00 +4.7967520496e+00 4.7967520496e+00 0.0000000000e+00 0.0000e+00 1.0000e+00
       21 -1    0    0  501  502 -0.0000000000e+00 -0.0000000000e+00 -8.1435312053e+02 8.1435312053e+02 0.0000000000e+00 0.0000e+00 1.0000e+00
       25  2    1    2    0    0 +0.0000000000e+00 +0.0000000000e+00 -8.0955636848e+02 8.1914987258e+02 1.2500000000e+02 0.0000e+00 0.0000e+00
      -15  1    3    3    0    0 +4.4400475757e+00 +1.1182439910e+01 -6.2569096583e+02 6.2580915896e+02 1.7770000000e+00 0.0000e+00 -1.0000e+00
       15  1    3    3    0    0 +2.7898951374e+00 +1.5170064663e+01 -1.4500746312e+02 1.4583633452e+02 1.7770000000e+00 0.0000e+00 -1.0000e+00
       22  1    3    3    0    0 -7.2299427131e+00 -2.6352504573e+01 -3.8857939505e+01 4.7504379077e+01 0.0000000000e+00 0.0000e+00 -1.0000e+00
<mgrwt>
<rscale>  2 0.12500000E+03</rscale>
<asrwt>0</asrwt>
<pdfrwt beam="1">  1       21 0.70540550E-03 0.12500000E+03</pdfrwt>
<pdfrwt beam="2">  1       21 0.11975768E+00 0.12500000E+03</pdfrwt>
<totfact> 0.27494644E+06</totfact>
</mgrwt>
</event>
<event>
 6      0 +1.3698540e+00 1.25000000e+02 7.54677100e-03 1.12640300e-01
       21 -1    0    0  502  501 +0.0000000000e+00 +0.0000000000e+00 +2.3949291778e+02 2.3949291778e+02 0.0000000000e+00 0.0000e+00 1.0000e+00
       21 -1    0    0  501  502 -0.0000000000e+00 -0.0000000000e+00 -1.6310503192e+01 1.6310503192e+01 0.0000000000e+00 0.0000e+00 1.0000e+00
       25  2    1    2    0    0 +0.0000000000e+00 +0.0000000000e+00 +2.2318241459e+02 2.5580342098e+02 1.2500000000e+02 0.0000e+00 0.0000e+00
      -15  1    3    3    0    0 +1.2980278133e+01 -1.1950481922e+01 +8.2326810812e+00 1.9550867125e+01 1.7770000000e+00 0.0000e+00 -1.0000e+00
       15  1    3    3    0    0 +2.5429358114e+01 -1.2653590569e+01 +1.6945693414e+02 1.7183007846e+02 1.7770000000e+00 0.0000e+00 -1.0000e+00
       22  1    3    3    0    0 -3.8409636246e+01 +2.4604072491e+01 +4.5492799351e+01 6.4422475368e+01 0.0000000000e+00 0.0000e+00 -1.0000e+00
<mgrwt>
<rscale>  2 0.12500000E+03</rscale>
<asrwt>0</asrwt>
<pdfrwt beam="1">  1       21 0.35219545E-01 0.12500000E+03</pdfrwt>
<pdfrwt beam="2">  1       21 0.23986036E-02 0.12500000E+03</pdfrwt>
<totfact> 0.69262920E+06</totfact>
</mgrwt>
</event>
<event>
 6      0 +1.3698540e+00 1.25000000e+02 7.54677100e-03 1.12640300e-01
       21 -1    0    0  502  501 +0.0000000000e+00 +0.0000000000e+00 +8.9336193225e+01 8.9336193225e+01 0.0000000000e+00 0.0000e+00 -1.0000e+00
       21 -1    0    0  501  502 -0.0000000000e+00 -0.0000000000e+00 -4.3725279296e+01 4.3725279296e+01 0.0000000000e+00 0.0000e+00 -1.0000e+00
       25  2    1    2    0    0 +0.0000000000e+00 +0.0000000000e+00 +4.5610913928e+01 1.3306147252e+02 1.2500000000e+02 0.0000e+00 0.0000e+00
      -15  1    3    3    0    0 +1.8630032994e+01 +4.1363504690e+01 +6.1506769537e+01 7.6447747367e+01 1.7770000000e+00 0.0000e+00 -1.0000e+00
       15  1    3    3    0    0 -2.0337247497e+01 -1.0911864206e+01 -1.1338017811e+01 2.5775585214e+01 1.7770000000e+00 0.0000e+00 -1.0000e+00
       22  1    3    3    0    0 +1.7072145037e+00 -3.0451640485e+01 -4.5578377975e+00 3.0838139940e+01 0.0000000000e+00 0.0000e+00 -1.0000e+00
<mgrwt>
<rscale>  2 0.12500000E+03</rscale>
<asrwt>0</asrwt>
<pdfrwt beam="1">  1       21 0.13137675E-01 0.12500000E+03</pdfrwt>
<pdfrwt beam="2">  1       21 0.64301881E-02 0.12500000E+03</pdfrwt>
<totfact> 0.87547161E+06</totfact>
</mgrwt>
</event>
<event>
 6      0 +1.3698540e+00 1.25000000e+02 7.54677100e-03 1.12640300e-01
       21 -1    0    0  502  501 +0.0000000000e+00 +0.0000000000e+00 +4.9377225063e+01 4.9377225063e+01 0.0000000000e+00 0.0000e+00 1.0000e+00
       21 -1    0    0  501  502 -0.0000000000e+00 -0.0000000000e+00 -7.9110358976e+01 7.9110358976e+01 0.0000000000e+00 0.0000e+00 1.0000e+00
       25  2    1    2    0    0 +0.0000000000e+00 +0.0000000000e+00 -2.9733133913e+01 1.2848758404e+02 1.2500000000e+02 0.0000e+00 0.0000e+00
      -15  1    3    3    0    0 -8.6289688973e+00 -2.1189146699e+01 -4.4792753797e+01 5.0328794579e+01 1.7770000000e+00 0.0000e+00 -1.0000e+00
       15  1    3    3    0    0 -1.1415556000e+01 -2.4257333190e+01 +7.6714017866e+00 2.7941747737e+01 1.7770000000e+00 0.0000e+00 -1.0000e+00
       22  1    3    3    0    0 +2.0044524898e+01 +4.5446479889e+01 +7.3882180979e+00 5.0217041723e+01 0.0000000000e+00 0.0000e+00 -1.0000e+00
<mgrwt>
<rscale>  2 0.12500000E+03</rscale>
<asrwt>0</asrwt>
<pdfrwt beam="1">  1       21 0.72613567E-02 0.12500000E+03</pdfrwt>
<pdfrwt beam="2">  1       21 0.11633876E-01 0.12500000E+03</pdfrwt>
<totfact> 0.88371172E+06</totfact>
</mgrwt>
</event>
<event>
 6      0 +1.3698540e+00 1.25000000e+02 7.54677100e-03 1.12640300e-01
       21 -1    0    0  502  501 +0.0000000000e+00 +0.0000000000e+00 +1.7085655557e+02 1.7085655557e+02 0.0000000000e+00 0.0000e+00 1.0000e+00
       21 -1    0    0  501  502 -0.0000000000e+00 -0.0000000000e+00 -2.2862745811e+01 2.2862745811e+01 0.0000000000e+00 0.0000e+00 1.0000e+00
       25  2    1    2    0    0 +0.0000000000e+00 +0.0000000000e+00 +1.4799380976e+02 1.9371930138e+02 1.2500000000e+02 0.0000e+00 0.0000e+00
      -15  1    3    3    0    0 -1.1380376706e+00 +1.4236703061e+01 +8.9441789460e+01 9.0592330110e+01 1.7770000000e+00 0.0000e+00 -1.0000e+00
       15  1    3    3    0    0 +3.5051926886e+01 +4.1130994036e+00 +2.9463987350e+00 3.5459754084e+01 1.7770000000e+00 0.0000e+00 -1.0000e+00
       22  1    3    3    0    0 -3.3913889216e+01 -1.8349802465e+01 +5.5605621565e+01 6.7667217187e+01 0.0000000000e+00 0.0000e+00 -1.0000e+00
<mgrwt>
<rscale>  2 0.12500000E+03</rscale>
<asrwt>0</asrwt>
<pdfrwt beam="1">  1       21 0.25125963E-01 0.12500000E+03</pdfrwt>
<pdfrwt beam="2">  1       21 0.33621686E-02 0.12500000E+03</pdfrwt>
<totfact> 0.77744331E+06</totfact>
</mgrwt>
</event>
<event>
 6      0 +1.3698540e+00 1.25000000e+02 7.54677100e-03 1.12640300e-01
       21 -1    0    0  502  501 +0.0000000000e+00 +0.0000000000e+00 +2.0742195313e+01 2.0742195313e+01 0.0000000000e+00 0.0000e+00 1.0000e+00
       21 -1    0    0  501  502 -0.0000000000e+00 -0.0000000000e+00 -1.8832384620e+02 1.8832384620e+02 0.0000000000e+00 0.0000e+00 1.0000e+00
       25  2    1    2    0    0 +0.0000000000e+00 +0.0000000000e+00 -1.6758165089e+02 2.0906604152e+02 1.2500000000e+02 0.0000e+00 0.0000e+00
      -15  1    3    3    0    0 -3.8577054677e+01 -2.7927792697e-01 -1.6597965417e+02 1.7041323444e+02 1.7770000000e+00 0.0000e+00 1.0000e+00
       15  1    3    3    0    0 +3.8576880558e+01 +2.7956944617e-01 -1.6012428780e+00 3.8651980292e+01 1.7770000000e+00 0.0000e+00 1.0000e+00
       22  1    3    3    0    0 +1.7411876372e-04 -2.9151919700e-04 -7.5383205564e-04 8.2677902381e-04 0.0000000000e+00 0.0000e+00 -1.0000e+00
<mgrwt>
<rscale>  2 0.12500000E+03</rscale>
<asrwt>0</asrwt>
<pdfrwt beam="1">  1       21 0.30503227E-02 0.12500000E+03</pdfrwt>
<pdfrwt beam="2">  1       21 0.27694685E-01 0.12500000E+03</pdfrwt>
<totfact> 0.75516329E+06</totfact>
</mgrwt>
</event>
<event>
 6      0 +1.3698540e+00 1.25000000e+02 7.54677100e-03 1.12640300e-01
       21 -1    0    0  502  501 +0.0000000000e+00 +0.0000000000e+00 +7.8103962309e+01 7.8103962309e+01 0.0000000000e+00 0.0000e+00 1.0000e+00
       21 -1    0    0  501  502 -0.0000000000e+00 -0.0000000000e+00 -5.0013467749e+01 5.0013467749e+01 0.0000000000e+00 0.0000e+00 1.0000e+00
       25  2    1    2    0    0 +0.0000000000e+00 +0.0000000000e+00 +2.8090494560e+01 1.2811743006e+02 1.2500000000e+02 0.0000e+00 0.0000e+00
      -15  1    3    3    0    0 -2.4408592557e+01 -2.4487575899e+00 +1.4177243037e+01 2.8388866717e+01 1.7770000000e+00 0.0000e+00 -1.0000e+00
       15  1    3    3    0    0 -2.3439673703e+01 +3.2160068357e+01 -5.3721347074e+00 4.0195843819e+01 1.7770000000e+00 0.0000e+00 -1.0000e+00
       22  1    3    3    0    0 +4.7848266260e+01 -2.9711310767e+01 +1.9285386230e+01 5.9532719522e+01 0.0000000000e+00 0.0000e+00 -1.0000e+00
<mgrwt>
<rscale>  2 0.12500000E+03</rscale>
<asrwt>0</asrwt>
<pdfrwt beam="1">  1       21 0.11485877E-01 0.12500000E+03</pdfrwt>
<pdfrwt beam="2">  1       21 0.73549217E-02 0.12500000E+03</pdfrwt>
<totfact> 0.88436937E+06</totfact>
</mgrwt>
</event>
<event>
 6      0 +1.3698540e+00 1.25000000e+02 7.54677100e-03 1.12640300e-01
       21 -1    0    0  502  501 +0.0000000000e+00 +0.0000000000e+00 +3.5373188323e+02 3.5373188323e+02 0.0000000000e+00 0.0000e+00 -1.0000e+00
       21 -1    0    0  501  502 -0.0000000000e+00 -0.0000000000e+00 -1.1042968376e+01 1.1042968376e+01 0.0000000000e+00 0.0000e+00 -1.0000e+00
       25  2    1    2    0    0 +0.0000000000e+00 +0.0000000000e+00 +3.4268891486e+02 3.6477485161e+02 1.2500000000e+02 0.0000e+00 0.0000e+00
      -15  1    3    3    0    0 -4.1350796477e+01 -1.6658779098e+01 +1.9983902020e+02 2.0475887041e+02 1.7770000000e+00 0.0000e+00 -1.0000e+00
       15  1    3    3    0    0 +2.2771583211e+01 +8.2088709013e+00 +1.3649927818e+02 1.3864033048e+02 1.7770000000e+00 0.0000e+00 -1.0000e+00
       22  1    3    3    0    0 +1.8579213265e+01 +8.4499081967e+00 +6.3506164927e+00 2.1375650726e+01 0.0000000000e+00 0.0000e+00 -1.0000e+00
<mgrwt>
<rscale>  2 0.12500000E+03</rscale>
<asrwt>0</asrwt>
<pdfrwt beam="1">  1       21 0.52019387E-01 0.12500000E+03</pdfrwt>
<pdfrwt beam="2">  1       21 0.16239662E-02 0.12500000E+03</pdfrwt>
<totfact> 0.57037449E+06</totfact>
</mgrwt>
</event>
<event>
 6      0 +1.3698540e+00 1.25000000e+02 7.54677100e-03 1.12640300e-01
       21 -1    0    0  502  501 +0.0000000000e+00 +0.0000000000e+00 +3.5718825372e+00 3.5718825372e+00 0.0000000000e+00 0.0000e+00 1.0000e+00
       21 -1    0    0  501  502 -0.0000000000e+00 -0.0000000000e+00 -1.0936109907e+03 1.0936109907e+03 0.0000000000e+00 0.0000e+00 1.0000e+00
       25  2    1    2    0    0 +0.0000000000e+00 +0.0000000000e+00 -1.0900391081e+03 1.0971828732e+03 1.2500000000e+02 0.0000e+00 0.0000e+00
      -15  1    3    3    0    0 -5.6757620210e+00 +1.4164180522e+00 -1.9277853016e+02 1.9287545187e+02 1.7770000000e+00 0.0000e+00 -1.0000e+00
       15  1    3    3    0    0 +3.9056509724e+01 -9.4153320598e+00 -8.0274559504e+02 8.0375226750e+02 1.7770000000e+00 0.0000e+00 -1.0000e+00
       22  1    3    3    0    0 -3.3380747703e+01 +7.9989140076e+00 -9.4514980942e+01 1.0055515186e+02 0.0000000000e+00 0.0000e+00 -1.0000e+00
<mgrwt>
<rscale>  2 0.12500000E+03</rscale>
<asrwt>0</asrwt>
<pdfrwt beam="1">  1       21 0.52527681E-03 0.12500000E+03</pdfrwt>
<pdfrwt beam="2">  1       21 0.16082515E+00 0.12500000E+03</pdfrwt>
<totfact> 0.18479450E+06</totfact>
</mgrwt>
</event>
<event>
 6      0 +1.3698540e+00 1.25000000e+02 7.54677100e-03 1.12640300e-01
       21 -1    0    0  502  501 +0.0000000000e+00 +0.0000000000e+00 +7.7256484563e+00 7.7256484563e+00 0.0000000000e+00 0.0000e+00 1.0000e+00
       21 -1    0    0  501  502 -0.0000000000e+00 -0.0000000000e+00 -5.0562098730e+02 5.0562098730e+02 0.0000000000e+00 0.0000e+00 1.0000e+00
       25  2    1    2    0    0 +0.0000000000e+00 +0.0000000000e+00 -4.9789533884e+02 5.1334663576e+02 1.2500000000e+02 0.0000e+00 0.0000e+00
      -15  1    3    3    0    0 +5.2148872651e+01 +3.4355700426e+01 -2.5637763057e+02 2.6387964350e+02 1.7770000000e+00 0.0000e+00 -1.0000e+00
       15  1    3    3    0    0 -5.2148872714e+01 -3.4355700374e+01 -2.4151770791e+02 2.4946699188e+02 1.7770000000e+00 0.0000e+00 -1.0000e+00
       22  1    3    3    0    0 +6.2725460346e-08 -5.2106071368e-08 -2.3941261693e-07 2.5291881543e-07 0.0000000000e+00 0.0000e+00 1.0000e+00
<mgrwt>
<rscale>  2 0.12500000E+03</rscale>
<asrwt>0</asrwt>
<pdfrwt beam="1">  1       21 0.11361247E-02 0.12500000E+03</pdfrwt>
<pdfrwt beam="2">  1       21 0.74356032E-01 0.12500000E+03</pdfrwt>
<totfact> 0.44348072E+06</totfact>
</mgrwt>
</event>
<event>
 6      0 +1.3698540e+00 1.25000000e+02 7.54677100e-03 1.12640300e-01
       21 -1    0    0  502  501 +0.0000000000e+00 +0.0000000000e+00 +2.2090219581e+01 2.2090219581e+01 0.0000000000e+00 0.0000e+00 1.0000e+00
       21 -1    0    0  501  502 -0.0000000000e+00 -0.0000000000e+00 -1.7683165102e+02 1.7683165102e+02 0.0000000000e+00 0.0000e+00 1.0000e+00
       25  2    1    2    0    0 +0.0000000000e+00 +0.0000000000e+00 -1.5474143144e+02 1.9892187060e+02 1.2500000000e+02 0.0000e+00 0.0000e+00
      -15  1    3    3    0    0 -4.6118130742e+00 -4.4917250472e+01 -1.4608171032e+02 1.5291125540e+02 1.7770000000e+00 0.0000e+00 -1.0000e+00
       15  1    3    3    0    0 +4.6118130706e+00 +4.4917250284e+01 -8.6597209730e+00 4.6010614963e+01 1.7770000000e+00 0.0000e+00 -1.0000e+00
       22  1    3    3    0    0 +3.6199211176e-09 +1.8799886011e-07 -1.5321175722e-07 2.4255003150e-07 0.0000000000e+00 0.0000e+00 -1.0000e+00
<mgrwt>
<rscale>  2 0.12500000E+03</rscale>
<asrwt>0</asrwt>
<pdfrwt beam="1">  1       21 0.32485617E-02 0.12500000E+03</pdfrwt>
<pdfrwt beam="2">  1       21 0.26004655E-01 0.12500000E+03</pdfrwt>
<totfact> 0.76976498E+06</totfact>
</mgrwt>
</event>
<event>
 6      0 +1.3698540e+00 1.25000000e+02 7.54677100e-03 1.12640300e-01
       21 -1    0    0  502  501 +0.0000000000e+00 +0.0000000000e+00 +2.0618613332e+02 2.0618613332e+02 0.0000000000e+00 0.0000e+00 1.0000e+00
       21 -1    0    0  501  502 -0.0000000000e+00 -0.0000000000e+00 -1.8945260465e+01 1.8945260465e+01 0.0000000000e+00 0.0000e+00 1.0000e+00
       25  2    1    2    0    0 +0.0000000000e+00 +0.0000000000e+00 +1.8724087285e+02 2.2513139378e+02 1.2500000000e+02 0.0000e+00 0.0000e+00
      -15  1    3    3    0    0 -8.0267693854e+00 -1.8263197805e+01 +5.7499226206e+00 2.0837292529e+01 1.7770000000e+00 0.0000e+00 -1.0000e+00
       15  1    3    3    0    0 -2.2433282026e+01 +4.3629748745e+01 +6.6461005617e+01 8.2625844108e+01 1.7770000000e+00 0.0000e+00 -1.0000e+00
       22  1    3    3    0    0 +3.0460051412e+01 -2.5366550940e+01 +1.1502994461e+02 1.2166825714e+02 0.0000000000e+00 0.0000e+00 -1.0000e+00
<mgrwt>
<rscale>  2 0.12500000E+03</rscale>
<asrwt>0</asrwt>
<pdfrwt beam="1">  1       21 0.30321489E-01 0.12500000E+03</pdfrwt>
<pdfrwt beam="2">  1       21 0.27860678E-02 0.12500000E+03</pdfrwt>
<totfact> 0.73293749E+06</totfact>
</mgrwt>
</event>
<event>
 6      0 +1.3698540e+00 1.25000000e+02 7.54677100e-03 1.12640300e-01
       21 -1    0    0  502  501 +0.0000000000e+00 +0.0000000000e+00 +2.3884522669e+01 2.3884522669e+01 0.0000000000e+00 0.0000e+00 1.0000e+00
       21 -1    0    0  501  502 -0.0000000000e+00 -0.0000000000e+00 -1.6354733374e+02 1.6354733374e+02 0.0000000000e+00 0.0000e+00 1.0000e+00
       25  2    1    2    0    0 +0.0000000000e+00 +0.0000000000e+00 -1.3966281107e+02 1.8743185640e+02 1.2500000000e+02 0.0000e+00 0.0000e+00
      -15  1    3    3    0    0 -1.0995790685e+01 -3.3929521603e+01 +7.0793771442e+00 3.6405976963e+01 1.7770000000e+00 0.0000e+00 1.0000e+00
       15  1    3    3    0    0 +1.0995234981e+01 +3.3930239364e+01 -1.4674203212e+02 1.5102495839e+02 1.7770000000e+00 0.0000e+00 1.0000e+00
       22  1    3    3    0    0 +5.5570392768e-04 -7.1776183513e-04 -1.5610226049e-04 9.2106287669e-04 0.0000000000e+00 0.0000e+00 1.0000e+00
<mgrwt>
<rscale>  2 0.12500000E+03</rscale>
<asrwt>0</asrwt>
<pdfrwt beam="1">  1       21 0.35124298E-02 0.12500000E+03</pdfrwt>
<pdfrwt beam="2">  1       21 0.24051078E-01 0.12500000E+03</pdfrwt>
<totfact> 0.78681690E+06</totfact>
</mgrwt>
</event>
<event>
 6      0 +1.3698540e+00 1.25000000e+02 7.54677100e-03 1.12640300e-01
       21 -1    0    0  502  501 +0.0000000000e+00 +0.0000000000e+00 +4.4837833009e+02 4.4837833009e+02 0.0000000000e+00 0.0000e+00 -1.0000e+00
       21 -1    0    0  501  502 -0.0000000000e+00 -0.0000000000e+00 -8.7119509080e+00 8.7119509080e+00 0.0000000000e+00 0.0000e+00 -1.0000e+00
       25  2    1    2    0    0 +0.0000000000e+00 +0.0000000000e+00 +4.3966637919e+02 4.5709028100e+02 1.2500000000e+02 0.0000e+00 0.0000e+00
      -15  1    3    3    0    0 +3.0776834216e+01 +3.4299356176e+00 +2.1420562940e+01 3.7695838343e+01 1.7770000000e+00 0.0000e+00 1.0000e+00
       15  1    3    3    0    0 -3.0776834276e+01 -3.4299356229e+00 +4.1824581614e+02 4.1939444254e+02 1.7770000000e+00 0.0000e+00 1.0000e+00
       22  1    3    3    0    0 +6.0296066389e-08 +5.3086602646e-09 +1.8945053783e-07 1.9888515224e-07 0.0000000000e+00 0.0000e+00 -1.0000e+00
<mgrwt>
<rscale>  2 0.12500000E+03</rscale>
<asrwt>0</asrwt>
<pdfrwt beam="1">  1       21 0.65937974E-01 0.12500000E+03</pdfrwt>
<pdfrwt beam="2">  1       21 0.12811696E-02 0.12500000E+03</pdfrwt>
<totfact> 0.48689984E+06</totfact>
</mgrwt>
</event>
<event>
 6      0 +1.3698540e+00 1.25000000e+02 7.54677100e-03 1.12640300e-01
       21 -1    0    0  502  501 +0.0000000000e+00 +0.0000000000e+00 +1.0613237908e+02 1.0613237908e+02 0.0000000000e+00 0.0000e+00 1.0000e+00
       21 -1    0    0  501  502 -0.0000000000e+00 -0.0000000000e+00 -3.6805450269e+01 3.6805450269e+01 0.0000000000e+00 0.0000e+00 1.0000e+00
       25  2    1    2    0    0 +0.0000000000e+00 +0.0000000000e+00 +6.9326928809e+01 1.4293782935e+02 1.2500000000e+02 0.0000e+00 0.0000e+00
      -15  1    3    3    0    0 +3.9425064037e+01 -3.9999562712e+01 +6.5403449906e+01 8.6226850111e+01 1.7770000000e+00 0.0000e+00 -1.0000e+00
       15  1    3    3    0    0 -3.9451737291e+01 +4.0209922542e+01 +3.8716765262e+00 5.6492699123e+01 1.7770000000e+00 0.0000e+00 -1.0000e+00
       22  1    3    3    0    0 +2.6673253996e-02 -2.1035983023e-01 +5.1802374940e-02 2.1828011064e-01 0.0000000000e+00 0.0000e+00 1.0000e+00
<mgrwt>
<rscale>  2 0.12500000E+03</rscale>
<asrwt>0</asrwt>
<pdfrwt beam="1">  1       21 0.15607703E-01 0.12500000E+03</pdfrwt>
<pdfrwt beam="2">  1       21 0.54125662E-02 0.12500000E+03</pdfrwt>
<totfact> 0.85830990E+06</totfact>
</mgrwt>
</event>
<event>
 6      0 +1.3698540e+00 1.25000000e+02 7.54677100e-03 1.12640300e-01
       21 -1    0    0  502  501 +0.0000000000e+00 +0.0000000000e+00 +3.5128523582e+02 3.5128523582e+02 0.0000000000e+00 0.0000e+00 1.0000e+00
       21 -1    0    0  501  502 -0.0000000000e+00 -0.0000000000e+00 -1.1119880945e+01 1.1119880945e+01 0.0000000000e+00 0.0000e+00 1.0000e+00
       25  2    1    2    0    0 +0.0000000000e+00 +0.0000000000e+00 +3.4016535487e+02 3.6240511676e+02 1.2500000000e+02 0.0000e+00 0.0000e+00
      -15  1    3    3    0    0 -1.1522405968e+01 +5.2996543068e+01 +8.0173831866e+01 9.6811158766e+01 1.7770000000e+00 0.0000e+00 1.0000e+00
       15  1    3    3    0    0 +1.1522410548e+01 -5.2996542017e+01 +2.5999151978e+02 2.6559395230e+02 1.7770000000e+00 0.0000e+00 1.0000e+00
       22  1    3    3    0    0 -4.5792611197e-06 -1.0507788633e-06 +3.2269664422e-06 5.6997439452e-06 0.0000000000e+00 0.0000e+00 1.0000e+00
<mgrwt>
<rscale>  2 0.12500000E+03</rscale>
<asrwt>0</asrwt>
<pdfrwt beam="1">  1       21 0.51659586E-01 0.12500000E+03</pdfrwt>
<pdfrwt beam="2">  1       21 0.16352768E-02 0.12500000E+03</pdfrwt>
<totfact> 0.57273770E+06</totfact>
</mgrwt>
</event>
<event>
 6      0 +1.3698540e+00 1.25000000e+02 7.54677100e-03 1.12640300e-01
       21 -1    0    0  502  501 +0.0000000000e+00 +0.0000000000e+00 +8.3357282741e+01 8.3357282741e+01 0.0000000000e+00 0.0000e+00 -1.0000e+00
       21 -1    0    0  501  502 -0.0000000000e+00 -0.0000000000e+00 -4.6861532329e+01 4.6861532329e+01 0.0000000000e+00 0.0000e+00 -1.0000e+00
       25  2    1    2    0    0 +0.0000000000e+00 +0.0000000000e+00 +3.6495750412e+01 1.3021881507e+02 1.2500000000e+02 0.0000e+00 0.0000e+00
      -15  1    3    3    0    0 +3.2486063494e+01 +8.0694895619e+00 -2.8035130411e+01 4.3698824347e+01 1.7770000000e+00 0.0000e+00 -1.0000e+00
       15  1    3    3    0    0 +8.3852454546e+00 +6.8484630243e+00 +2.6692475434e+01 2.8859309779e+01 1.7770000000e+00 0.0000e+00 -1.0000e+00
       22  1    3    3    0    0 -4.0871308949e+01 -1.4917952586e+01 +3.7838405390e+01 5.7660680945e+01 0.0000000000e+00 0.0000e+00 -1.0000e+00
<mgrwt>
<rscale>  2 0.12500000E+03</rscale>
<asrwt>0</asrwt>
<pdfrwt beam="1">  1       21 0.12258424E-01 0.12500000E+03</pdfrwt>
<pdfrwt beam="2">  1       21 0.68914018E-02 0.12500000E+03</pdfrwt>
<totfact> 0.88057995E+06</totfact>
</mgrwt>
</event>
<event>
 6      0 +1.3698540e+00 1.25000000e+02 7.54677100e-03 1.12640300e-01
       21 -1    0    0  502  501 +0.0000000000e+00 +0.0000000000e+00 +1.0422790195e+02 1.0422790195e+02 0.0000000000e+00 0.0000e+00 -1.0000e+00
       21 -1    0    0  501  502 -0.0000000000e+00 -0.0000000000e+00 -3.7477968250e+01 3.7477968250e+01 0.0000000000e+00 0.0000e+00 -1.0000e+00
       25  2    1    2    0    0 +0.0000000000e+00 +0.0000000000e+00 +6.6749933700e+01 1.4170587020e+02 1.2500000000e+02 0.0000e+00 0.0000e+00
      -15  1    3    3    0    0 +3.6141188721e+01 -1.1334433184e+01 +1.4353119426e+01 4.0544107636e+01 1.7770000000e+00 0.0000e+00 -1.0000e+00
       15  1    3    3    0    0 +1.6606610542e+01 +1.0946223201e+00 -9.4603472133e+00 1.9225857851e+01 1.7770000000e+00 0.0000e+00 -1.0000e+00
       22  1    3    3    0    0 -5.2747799263e+01 +1.0239810864e+01 +6.1857161488e+01 8.1935904712e+01 0.0000000000e+00 0.0000e+00 -1.0000e+00
<mgrwt>
<rscale>  2 0.12500000E+03</rscale>
<asrwt>0</asrwt>
<pdfrwt beam="1">  1       21 0.15327633E-01 0.12500000E+03</pdfrwt>
<pdfrwt beam="2">  1       21 0.55114660E-02 0.12500000E+03</pdfrwt>
<totfact> 0.86044886E+06</totfact>
</mgrwt>
</event>
<event>
 6      0 +1.3698540e+00 1.25000000e+02 7.54677100e-03 1.12640300e-01
       21 -1    0    0  502  501 +0.0000000000e+00 +0.0000000000e+00 +3.4505228597e+01 3.4505228597e+01 0.0000000000e+00 0.0000e+00 1.0000e+00
       21 -1    0    0  501  502 -0.0000000000e+00 -0.0000000000e+00 -1.1320748069e+02 1.1320748069e+02 0.0000000000e+00 0.0000e+00 1.0000e+00
       25  2    1    2    0    0 +0.0000000000e+00 +0.0000000000e+00 -7.8702252091e+01 1.4771270928e+02 1.2500000000e+02 0.0000e+00 0.0000e+00
      -15  1    3    3    0    0 +1.6466631961e+01 +9.2864443193e+00 -3.8066003863e+01 4.2538998523e+01 1.7770000000e+00 0.0000e+00 -1.0000e+00
       15  1    3    3    0    0 +2.4940359318e+01 +2.1372267052e+01 -4.2349950665e+01 5.3623421862e+01 1.7770000000e+00 0.0000e+00 -1.0000e+00
       22  1    3    3    0    0 -4.1406991279e+01 -3.0658711371e+01 +1.7137024348e+00 5.1550288900e+01 0.0000000000e+00 0.0000e+00 -1.0000e+00
<mgrwt>
<rscale>  2 0.12500000E+03</rscale>
<asrwt>0</asrwt>
<pdfrwt beam="1">  1       21 0.50742983E-02 0.12500000E+03</pdfrwt>
<pdfrwt beam="2">  1       21 0.16648159E-01 0.12500000E+03</pdfrwt>
<totfact> 0.85011109E+06</totfact>
</mgrwt>
</event>
<event>
 6      0 +1.3698540e+00 1.25000000e+02 7.54677100e-03 1.12640300e-01
       21 -1    0    0  502  501 +0.0000000000e+00 +0.0000000000e+00 +1.0062960514e+02 1.0062960514e+02 0.0000000000e+00 0.0000e+00 -1.0000e+00
       21 -1    0    0  501  502 -0.0000000000e+00 -0.0000000000e+00 -3.8818099253e+01 3.8818099253e+01 0.0000000000e+00 0.0000e+00 -1.0000e+00
       25  2    1    2    0    0 +0.0000000000e+00 +0.0000000000e+00 +6.1811505884e+01 1.3944770439e+02 1.2500000000e+02 0.0000e+00 0.0000e+00
      -15  1    3    3    0    0 +1.1488057769e+01 -2.3701797714e+01 -2.7224516277e+01 3.7922060885e+01 1.7770000000e+00 0.0000e+00 -1.0000e+00
       15  1    3    3    0    0 +7.0595008527e+00 +1.7475881745e+01 +1.2881995490e+01 2.2898614191e+01 1.7770000000e+00 0.0000e+00 -1.0000e+00
       22  1    3    3    0    0 -1.8547558622e+01 +6.2259159687e+00 +7.6154026672e+01 7.8627029314e+01 0.0000000000e+00 0.0000e+00 -1.0000e+00
<mgrwt>
<rscale>  2 0.12500000E+03</rscale>
<asrwt>0</asrwt>
<pdfrwt beam="1">  1       21 0.14798471E-01 0.12500000E+03</pdfrwt>
<pdfrwt beam="2">  1       21 0.57085440E-02 0.12500000E+03</pdfrwt>
<totfact> 0.86435741E+06</totfact>
</mgrwt>
</event>
<event>
 6      0 +1.3698540e+00 1.25000000e+02 7.54677100e-03 1.12640300e-01
       21 -1    0    0  502  501 +0.0000000000e+00 +0.0000000000e+00 +2.7660452848e+01 2.7660452848e+01 0.0000000000e+00 0.0000e+00 -1.0000e+00
       21 -1    0    0  501  502 -0.0000000000e+00 -0.0000000000e+00 -1.4122147680e+02 1.4122147680e+02 0.0000000000e+00 0.0000e+00 -1.0000e+00
       25  2    1    2    0    0 +0.0000000000e+00 +0.0000000000e+00 -1.1356102395e+02 1.6888192964e+02 1.2500000000e+02 0.0000e+00 0.0000e+00
      -15  1    3    3    0    0 +1.6407782722e+01 +2.1906209047e+01 -3.4414330373e+01 4.4006831205e+01 1.7770000000e+00 0.0000e+00 -1.0000e+00
       15  1    3    3    0    0 +2.3573118517e+01 +1.9442537816e+01 -4.9661372658e+00 3.1008457584e+01 1.7770000000e+00 0.0000e+00 -1.0000e+00
       22  1    3    3    0    0 -3.9980901239e+01 -4.1348746862e+01 -7.4180556317e+01 9.3866640861e+01 0.0000000000e+00 0.0000e+00 -1.0000e+00
<mgrwt>
<rscale>  2 0.12500000E+03</rscale>
<asrwt>0</asrwt>
<pdfrwt beam="1">  1       21 0.40677137E-02 0.12500000E+03</pdfrwt>
<pdfrwt beam="2">  1       21 0.20767864E-01 0.12500000E+03</pdfrwt>
<totfact> 0.81542090E+06</totfact>
</mgrwt>
</event>
<event>
 6      0 +1.3698540e+00 1.25000000e+02 7.54677100e-03 1.12640300e-01
       21 -1    0    0  502  501 +0.0000000000e+00 +0.0000000000e+00 +2.9402792643e+02 2.9402792643e+02 0.0000000000e+00 0.0000e+00 -1.0000e+00
       21 -1    0    0  501  502 -0.0000000000e+00 -0.0000000000e+00 -1.3285302683e+01 1.3285302683e+01 0.0000000000e+00 0.0000e+00 -1.0000e+00
       25  2    1    2    0    0 +0.0000000000e+00 +0.0000000000e+00 +2.8074262375e+02 3.0731322911e+02 1.2500000000e+02 0.0000e+00 0.0000e+00
      -15  1    3    3    0    0 +4.3194453908e+01 -1.5485440977e+01 +2.4280255381e+02 2.4710685462e+02 1.7770000000e+00 0.0000e+00 1.0000e+00
       15  1    3    3    0    0 -4.3418023604e+01 +1.5586220586e+01 +3.6792936274e+01 5.9033320545e+01 1.7770000000e+00 0.0000e+00 1.0000e+00
       22  1    3    3    0    0 +2.2356969604e-01 -1.0077960873e-01 +1.1471336979e+00 1.1730539882e+00 0.0000000000e+00 0.0000e+00 1.0000e+00
<mgrwt>
<rscale>  2 0.12500000E+03</rscale>
<asrwt>0</asrwt>
<pdfrwt beam="1">  1       21 0.43239397E-01 0.12500000E+03</pdfrwt>
<pdfrwt beam="2">  1       21 0.19537212E-02 0.12500000E+03</pdfrwt>
<totfact> 0.63117143E+06</totfact>
</mgrwt>
</event>
<event>
 6      0 +1.3698540e+00 1.25000000e+02 7.54677100e-03 1.12640300e-01
       21 -1    0    0  502  501 +0.0000000000e+00 +0.0000000000e+00 +3.5348416582e+01 3.5348416582e+01 0.0000000000e+00 0.0000e+00 1.0000e+00
       21 -1    0    0  501  502 -0.0000000000e+00 -0.0000000000e+00 -1.1050707154e+02 1.1050707154e+02 0.0000000000e+00 0.0000e+00 1.0000e+00
       25  2    1    2    0    0 +0.0000000000e+00 +0.0000000000e+00 -7.5158654957e+01 1.4585548812e+02 1.2500000000e+02 0.0000e+00 0.0000e+00
      -15  1    3    3    0    0 -5.5713396371e+00 -5.7444115399e+01 -1.3152385278e+01 5.9220006642e+01 1.7770000000e+00 0.0000e+00 1.0000e+00
       15  1    3    3    0    0 +6.8993782951e+00 +5.8235150213e+01 -6.1530370747e+01 8.5018106274e+01 1.7770000000e+00 0.0000e+00 1.0000e+00
       22  1    3    3    0    0 -1.3280386580e+00 -7.9103481462e-01 -4.7589893116e-01 1.6173752031e+00 0.0000000000e+00 0.0000e+00 1.0000e+00
<mgrwt>
<rscale>  2 0.12500000E+03</rscale>
<asrwt>0</asrwt>
<pdfrwt beam="1">  1       21 0.51982965E-02 0.12500000E+03</pdfrwt>
<pdfrwt beam="2">  1       21 0.16251040E-01 0.12500000E+03</pdfrwt>
<totfact> 0.85327478E+06</totfact>
</mgrwt>
</event>
<event>
 6      0 +1.3698540e+00 1.25000000e+02 7.54677100e-03 1.12640300e-01
       21 -1    0    0  502  501 +0.0000000000e+00 +0.0000000000e+00 +6.5109634382e+01 6.5109634382e+01 0.0000000000e+00 0.0000e+00 1.0000e+00
       21 -1    0    0  501  502 -0.0000000000e+00 -0.0000000000e+00 -5.9994961376e+01 5.9994961376e+01 0.0000000000e+00 0.0000e+00 1.0000e+00
       25  2    1    2    0    0 +0.0000000000e+00 +0.0000000000e+00 +5.1146730062e+00 1.2510459576e+02 1.2500000000e+02 0.0000e+00 0.0000e+00
      -15  1    3    3    0    0 -1.1565433384e+00 +8.8553607054e+00 +1.0792886983e+01 1.4120876183e+01 1.7770000000e+00 0.0000e+00 -1.0000e+00
       15  1    3    3    0    0 -2.2272103104e+01 +6.9051932425e+00 +4.6277612820e+01 5.1850780590e+01 1.7770000000e+00 0.0000e+00 -1.0000e+00
       22  1    3    3    0    0 +2.3428646443e+01 -1.5760553948e+01 -5.1955826799e+01 5.9132938986e+01 0.0000000000e+00 0.0000e+00 -1.0000e+00
<mgrwt>
<rscale>  2 0.12500000E+03</rscale>
<asrwt>0</asrwt>
<pdfrwt beam="1">  1       21 0.95749462E-02 0.12500000E+03</pdfrwt>
<pdfrwt beam="2">  1       21 0.88227884E-02 0.12500000E+03</pdfrwt>
<totfact> 0.88980117E+06</totfact>
</mgrwt>
</event>
<event>
 6      0 +1.3698540e+00 1.25000000e+02 7.54677100e-03 1.12640300e-01
       21 -1    0    0  502  501 +0.0000000000e+00 +0.0000000000e+00 +1.4122016072e+02 1.4122016072e+02 0.0000000000e+00 0.0000e+00 1.0000e+00
       21 -1    0    0  501  502 -0.0000000000e+00 -0.0000000000e+00 -2.7660710624e+01 2.7660710624e+01 0.0000000000e+00 0.0000e+00 1.0000e+00
       25  2    1    2    0    0 +0.0000000000e+00 +0.0000000000e+00 +1.1355945010e+02 1.6888087134e+02 1.2500000000e+02 0.0000e+00 0.0000e+00
      -15  1    3    3    0    0 -1.6769319831e+01 -5.8363911641e+01 +7.6606453914e+01 9.7771482447e+01 1.7770000000e+00 0.0000e+00 -1.0000e+00
       15  1    3    3    0    0 +1.6740650439e+01 +5.8284784529e+01 +3.6923574944e+01 7.1020233739e+01 1.7770000000e+00 0.0000e+00 -1.0000e+00
       22  1    3    3    0    0 +2.8669392348e-02 +7.9127111223e-02 +2.9421250714e-02 8.9155166881e-02 0.0000000000e+00 0.0000e+00 1.0000e+00
<mgrwt>
<rscale>  2 0.12500000E+03</rscale>
<asrwt>0</asrwt>
<pdfrwt beam="1">  1       21 0.20767670E-01 0.12500000E+03</pdfrwt>
<pdfrwt beam="2">  1       21 0.40677516E-02 0.12500000E+03</pdfrwt>
<totfact> 0.81542259E+06</totfact>
</mgrwt>
</event>
<event>
 6      0 +1.3698540e+00 1.25000000e+02 7.54677100e-03 1.12640300e-01
       21 -1    0    0  502  501 +0.0000000000e+00 +0.0000000000e+00 +7.2893373596e+01 7.2893373596e+01 0.0000000000e+00 0.0000e+00 1.0000e+00
       21 -1    0    0  501  502 -0.0000000000e+00 -0.0000000000e+00 -5.3588547316e+01 5.3588547316e+01 0.0000000000e+00 0.0000e+00 1.0000e+00
       25  2    1    2    0    0 +0.0000000000e+00 +0.0000000000e+00 +1.9304826279e+01 1.2648192091e+02 1.2500000000e+02 0.0000e+00 0.0000e+00
      -15  1    3    3    0    0 -1.9798118540e+01 +3.0748162582e+01 -5.1803763333e+00 3.6978494127e+01 1.7770000000e+00 0.0000e+00 -1.0000e+00
       15  1    3    3    0    0 -1.8155981127e+01 -8.1012326810e+00 -1.8958866530e+01 2.7529365607e+01 1.7770000000e+00 0.0000e+00 -1.0000e+00
       22  1    3    3    0    0 +3.7954099667e+01 -2.2646929901e+01 +4.3444069142e+01 6.1974061179e+01 0.0000000000e+00 0.0000e+00 -1.0000e+00
<mgrwt>
<rscale>  2 0.12500000E+03</rscale>
<asrwt>0</asrwt>
<pdfrwt beam="1">  1       21 0.10719614E-01 0.12500000E+03</pdfrwt>
<pdfrwt beam="2">  1       21 0.78806687E-02 0.12500000E+03</pdfrwt>
<totfact> 0.88725310E+06</totfact>
</mgrwt>
</event>
<event>
 6      0 +1.3698540e+00 1.25000000e+02 7.54677100e-03 1.12640300e-01
       21 -1    0    0  502  501 +0.0000000000e+00 +0.0000000000e+00 +6.2104169847e+00 6.2104169847e+00 0.0000000000e+00 0.0000e+00 -1.0000e+00
       21 -1    0    0  501  502 -0.0000000000e+00 -0.0000000000e+00 -6.2898353035e+02 6.2898353035e+02 0.0000000000e+00 0.0000e+00 -1.0000e+00
       25  2    1    2    0    0 +0.0000000000e+00 +0.0000000000e+00 -6.2277311337e+02 6.3519394734e+02 1.2500000000e+02 0.0000e+00 0.0000e+00
      -15  1    3    3    0    0 +4.1290045463e+01 -4.6531962625e+01 -3.1919223242e+02 3.2520290645e+02 1.7770000000e+00 0.0000e+00 1.0000e+00
       15  1    3    3    0    0 -4.1246119689e+01 +4.6767920572e+01 -3.0085229403e+02 3.0725191836e+02 1.7770000000e+00 0.0000e+00 1.0000e+00
       22  1    3    3    0    0 -4.3925773627e-02 -2.3595794678e-01 -2.7285869094e+00 2.7391225143e+00 0.0000000000e+00 0.0000e+00 -1.0000e+00
<mgrwt>
<rscale>  2 0.12500000E+03</rscale>
<asrwt>0</asrwt>
<pdfrwt beam="1">  1       21 0.91329632E-03 0.12500000E+03</pdfrwt>
<pdfrwt beam="2">  1       21 0.92497607E-01 0.12500000E+03</pdfrwt>
<totfact> 0.36383888E+06</totfact>
</mgrwt>
</event>
<event>
 6      0 +1.3698540e+00 1.25000000e+02 7.54677100e-03 1.12640300e-01
       21 -1    0    0  502  501 +0.0000000000e+00 +0.0000000000e+00 +1.7277880374e+02 1.7277880374e+02 0.0000000000e+00 0.0000e+00 1.0000e+00
       21 -1    0    0  501  502 -0.0000000000e+00 -0.0000000000e+00 -2.2608386651e+01 2.2608386651e+01 0.0000000000e+00 0.0000e+00 1.0000e+00
       25  2    1    2    0    0 +0.0000000000e+00 +0.0000000000e+00 +1.5017041708e+02 1.9538719039e+02 1.2500000000e+02 0.0000e+00 0.0000e+00
      -15  1    3    3    0    0 +3.1269779359e-01 +3.3551613854e+01 +1.5745975699e+02 1.6100478680e+02 1.7770000000e+00 0.0000e+00 -1.0000e+00
       15  1    3    3    0    0 -3.0857530008e-01 -3.3535066647e+01 -7.2826763993e+00 3.4364094899e+01 1.7770000000e+00 0.0000e+00 -1.0000e+00
       22  1    3    3    0    0 -4.1224935178e-03 -1.6547206994e-02 -6.6635234929e-03 1.8308674377e-02 0.0000000000e+00 0.0000e+00 -1.0000e+00
<mgrwt>
<rscale>  2 0.12500000E+03</rscale>
<asrwt>0</asrwt>
<pdfrwt beam="1">  1       21 0.25408647E-01 0.12500000E+03</pdfrwt>
<pdfrwt beam="2">  1       21 0.33247628E-02 0.12500000E+03</pdfrwt>
<totfact> 0.77497298E+06</totfact>
</mgrwt>
</event>
<event>
 6      0 +1.3698540e+00 1.25000000e+02 7.54677100e-03 1.12640300e-01
       21 -1    0    0  502  501 +0.0000000000e+00 +0.0000000000e+00 +5.0618958955e+01 5.0618958955e+01 0.0000000000e+00 0.0000e+00 -1.0000e+00
       21 -1    0    0  501  502 -0.0000000000e+00 -0.0000000000e+00 -7.7169702432e+01 7.7169702432e+01 0.0000000000e+00 0.0000e+00 -1.0000e+00
       25  2    1    2    0    0 +0.0000000000e+00 +0.0000000000e+00 -2.6550743477e+01 1.2778866139e+02 1.2500000000e+02 0.0000e+00 0.0000e+00
      -15  1    3    3    0    0 +2.9297217890e+01 +5.3930464199e+01 -1.3447576140e+00 6.1414884571e+01 1.7770000000e+00 0.0000e+00 1.0000e+00
       15  1    3    3    0    0 -2.9296954156e+01 -5.3931012143e+01 -2.5206356345e+01 6.6373064738e+01 1.7770000000e+00 0.0000e+00 1.0000e+00
       22  1    3    3    0    0 -2.6373405332e-04 +5.4794384863e-04 +3.7048157927e-04 7.1207774345e-04 0.0000000000e+00 0.0000e+00 1.0000e+00
<mgrwt>
<rscale>  2 0.12500000E+03</rscale>
<asrwt>0</asrwt>
<pdfrwt beam="1">  1       21 0.74439647E-02 0.12500000E+03</pdfrwt>
<pdfrwt beam="2">  1       21 0.11348485E-01 0.12500000E+03</pdfrwt>
<totfact> 0.88494852E+06</totfact>
</mgrwt>
</event>
<event>
 6      0 +1.3698540e+00 1.25000000e+02 7.54677100e-03 1.12640300e-01
       21 -1    0    0  502  501 +0.0000000000e+00 +0.0000000000e+00 +3.2368358938e+03 3.2368358938e+03 0.0000000000e+00 0.0000e+00 -1.0000e+00
       21 -1    0    0  501  502 -0.0000000000e+00 -0.0000000000e+00 -1.2068112589e+00 1.2068112589e+00 0.0000000000e+00 0.0000e+00 -1.0000e+00
       25  2    1    2    0    0 +0.0000000000e+00 +0.0000000000e+00 +3.2356290826e+03 3.2380427051e+03 1.2500000000e+02 0.0000e+00 0.0000e+00
      -15  1    3    3    0    0 +1.7518200660e+00 -3.8365539105e+01 +3.4135624768e+02 3.4351452520e+02 1.7770000000e+00 0.0000e+00 1.0000e+00
       15  1    3    3    0    0 -1.7518200580e+00 +3.8365539538e+01 +2.8942728418e+03 2.8945281868e+03 1.7770000000e+00 0.0000e+00 1.0000e+00
       22  1    3    3    0    0 -8.0731462329e-09 -4.3315000463e-07 +5.0634180792e-06 5.0819176250e-06 0.0000000000e+00 0.0000e+00 -1.0000e+00
<mgrwt>
<rscale>  2 0.12500000E+03</rscale>
<asrwt>0</asrwt>
<pdfrwt beam="1">  1       21 0.47599921E+00 0.12500000E+03</pdfrwt>
<pdfrwt beam="2">  1       21 0.17747451E-03 0.12500000E+03</pdfrwt>
<totfact> 0.91445144E+04</totfact>
</mgrwt>
</event>
<event>
 6      0 +1.3698540e+00 1.25000000e+02 7.54677100e-03 1.12640300e-01
       21 -1    0    0  502  501 +0.0000000000e+00 +0.0000000000e+00 +6.0247523839e+01 6.0247523839e+01 0.0000000000e+00 0.0000e+00 -1.0000e+00
       21 -1    0    0  501  502 -0.0000000000e+00 -0.0000000000e+00 -6.4836689562e+01 6.4836689562e+01 0.0000000000e+00 0.0000e+00 -1.0000e+00
       25  2    1    2    0    0 +0.0000000000e+00 +0.0000000000e+00 -4.5891657230e+00 1.2508421340e+02 1.2500000000e+02 0.0000e+00 0.0000e+00
      -15  1    3    3    0    0 +1.4163305141e+01 -5.7282431625e+01 -2.2672686446e+01 6.3238316115e+01 1.7770000000e+00 0.0000e+00 1.0000e+00
       15  1    3    3    0    0 -1.4020796198e+01 +5.6622446094e+01 +1.8257183913e+01 6.1148725425e+01 1.7770000000e+00 0.0000e+00 1.0000e+00
       22  1    3    3    0    0 -1.4250894264e-01 +6.5998553033e-01 -1.7366318971e-01 6.9717186005e-01 0.0000000000e+00 0.0000e+00 1.0000e+00
<mgrwt>
<rscale>  2 0.12500000E+03</rscale>
<asrwt>0</asrwt>
<pdfrwt beam="1">  1       21 0.88599300E-02 0.12500000E+03</pdfrwt>
<pdfrwt beam="2">  1       21 0.95348072E-02 0.12500000E+03</pdfrwt>
<totfact> 0.88984415E+06</totfact>
</mgrwt>
</event>
<event>
 6      0 +1.3698540e+00 1.25000000e+02 7.54677100e-03 1.12640300e-01
       21 -1    0    0  502  501 +0.0000000000e+00 +0.0000000000e+00 +9.4827707096e+01 9.4827707096e+01 0.0000000000e+00 0.0000e+00 -1.0000e+00
       21 -1    0    0  501  502 -0.0000000000e+00 -0.0000000000e+00 -4.1193129304e+01 4.1193129304e+01 0.0000000000e+00 0.0000e+00 -1.0000e+00
       25  2    1    2    0    0 +0.0000000000e+00 +0.0000000000e+00 +5.3634577793e+01 1.3602083640e+02 1.2500000000e+02 0.0000e+00 0.0000e+00
      -15  1    3    3    0    0 -1.2363327112e+01 -1.2716669950e+01 +3.6892307218e+01 4.0972742314e+01 1.7770000000e+00 0.0000e+00 -1.0000e+00
       15  1    3    3    0    0 +1.1172078779e+01 -3.9392433483e+01 +2.7334289030e+00 4.1075643909e+01 1.7770000000e+00 0.0000e+00 -1.0000e+00
       22  1    3    3    0    0 +1.1912483328e+00 +5.2109103433e+01 +1.4008841672e+01 5.3972450177e+01 0.0000000000e+00 0.0000e+00 -1.0000e+00
<mgrwt>
<rscale>  2 0.12500000E+03</rscale>
<asrwt>0</asrwt>
<pdfrwt beam="1">  1       21 0.13945251E-01 0.12500000E+03</pdfrwt>
<pdfrwt beam="2">  1       21 0.60578131E-02 0.12500000E+03</pdfrwt>
<totfact> 0.87027868E+06</totfact>
</mgrwt>
</event>
<event>
 6      0 +1.3698540e+00 1.25000000e+02 7.54677100e-03 1.12640300e-01
       21 -1    0    0  502  501 +0.0000000000e+00 +0.0000000000e+00 +2.8019200337e+01 2.8019200337e+01 0.0000000000e+00 0.0000e+00 -1.0000e+00
       21 -1    0    0  501  502 -0.0000000000e+00 -0.0000000000e+00 -1.3941332918e+02 1.3941332918e+02 0.0000000000e+00 0.0000e+00 -1.0000e+00
       25  2    1    2    0    0 +0.0000000000e+00 +0.0000000000e+00 -1.1139412884e+02 1.6743252952e+02 1.2500000000e+02 0.0000e+00 0.0000e+00
      -15  1    3    3    0    0 +6.8054126236e+00 +3.2409731516e+01 +2.4648276290e+00 3.3255637750e+01 1.7770000000e+00 0.0000e+00 -1.0000e+00
       15  1    3    3    0    0 +1.0928808931e+00 +1.4521586594e+01 -5.2211365797e+00 1.5572053880e+01 1.7770000000e+00 0.0000e+00 -1.0000e+00
       22  1    3    3    0    0 -7.8982935167e+00 -4.6931318110e+01 -1.0863781988e+02 1.1860483788e+02 0.0000000000e+00 0.0000e+00 -1.0000e+00
<mgrwt>
<rscale>  2 0.12500000E+03</rscale>
<asrwt>0</asrwt>
<pdfrwt beam="1">  1       21 0.41204706E-02 0.12500000E+03</pdfrwt>
<pdfrwt beam="2">  1       21 0.20501960E-01 0.12500000E+03</pdfrwt>
<totfact> 0.81773918E+06</totfact>
</mgrwt>
</event>
<event>
 6      0 +1.3698540e+00 1.25000000e+02 7.54677100e-03 1.12640300e-01
       21 -1    0    0  502  501 +0.0000000000e+00 +0.0000000000e+00 +1.0711591840e+02 1.0711591840e+02 0.0000000000e+00 0.0000e+00 1.0000e+00
       21 -1    0    0  501  502 -0.0000000000e+00 -0.0000000000e+00 -3.6467502294e+01 3.6467502294e+01 0.0000000000e+00 0.0000e+00 1.0000e+00
       25  2    1    2    0    0 +0.0000000000e+00 +0.0000000000e+00 +7.0648416108e+01 1.4358342070e+02 1.2500000000e+02 0.0000e+00 0.0000e+00
      -15  1    3    3    0    0 +2.0659093084e+01 -1.5497051808e+01 -2.3556569457e+01 3.5000377646e+01 1.7770000000e+00 0.0000e+00 -1.0000e+00
       15  1    3    3    0    0 -3.4055673710e+01 +1.8663737606e+01 +5.7750921620e+01 6.9616454163e+01 1.7770000000e+00 0.0000e+00 -1.0000e+00
       22  1    3    3    0    0 +1.3396580626e+01 -3.1666857983e+00 +3.6454063942e+01 3.8966588885e+01 0.0000000000e+00 0.0000e+00 -1.0000e+00
<mgrwt>
<rscale>  2 0.12500000E+03</rscale>
<asrwt>0</asrwt>
<pdfrwt beam="1">  1       21 0.15752341E-01 0.12500000E+03</pdfrwt>
<pdfrwt beam="2">  1       21 0.53628680E-02 0.12500000E+03</pdfrwt>
<totfact> 0.85718865E+06</totfact>
</mgrwt>
</event>
<event>
 6      0 +1.3698540e+00 1.25000000e+02 7.54677100e-03 1.12640300e-01
       21 -1    0    0  502  501 +0.0000000000e+00 +0.0000000000e+00 +6.2223205501e+00 6.2223205501e+00 0.0000000000e+00 0.0000e+00 1.0000e+00
       21 -1    0    0  501  502 -0.0000000000e+00 -0.0000000000e+00 -6.2778025795e+02 6.2778025795e+02 0.0000000000e+00 0.0000e+00 1.0000e+00
       25  2    1    2    0    0 +0.0000000000e+00 +0.0000000000e+00 -6.2155793740e+02 6.3400257850e+02 1.2500000000e+02 0.0000e+00 0.0000e+00
      -15  1    3    3    0    0 -5.2261684901e+01 -1.8388554086e+01 -2.9746892219e+02 3.0258939180e+02 1.7770000000e+00 0.0000e+00 -1.0000e+00
       15  1    3    3    0    0 +1.0422176672e+01 +1.1361879144e+01 -2.5696166747e+01 3.0019406702e+01 1.7770000000e+00 0.0000e+00 -1.0000e+00
       22  1    3    3    0    0 +4.1839508229e+01 +7.0266749423e+00 -2.9839284847e+02 3.0139378001e+02 0.0000000000e+00 0.0000e+00 -1.0000e+00
<mgrwt>
<rscale>  2 0.12500000E+03</rscale>
<asrwt>0</asrwt>
<pdfrwt beam="1">  1       21 0.91504710E-03 0.12500000E+03</pdfrwt>
<pdfrwt beam="2">  1       21 0.92320630E-01 0.12500000E+03</pdfrwt>
<totfact> 0.36452178E+06</totfact>
</mgrwt>
</event>
<event>
 6      0 +1.3698540e+00 1.25000000e+02 7.54677100e-03 1.12640300e-01
       21 -1    0    0  502  501 +0.0000000000e+00 +0.0000000000e+00 +2.1571756841e+01 2.1571756841e+01 0.0000000000e+00 0.0000e+00 1.0000e+00
       21 -1    0    0  501  502 -0.0000000000e+00 -0.0000000000e+00 -1.8108168142e+02 1.8108168142e+02 0.0000000000e+00 0.0000e+00 1.0000e+00
       25  2    1    2    0    0 +0.0000000000e+00 +0.0000000000e+00 -1.5950992458e+02 2.0265343826e+02 1.2500000000e+02 0.0000e+00 0.0000e+00
      -15  1    3    3    0    0 +7.4589299528e+00 -1.1625720276e+01 +7.3093363019e+00 1.5728227304e+01 1.7770000000e+00 0.0000e+00 -1.0000e+00
       15  1    3    3    0    0 +2.3129865063e+01 +3.7504360426e+01 -9.3290252848e+01 1.0318816170e+02 1.7770000000e+00 0.0000e+00 -1.0000e+00
       22  1    3    3    0    0 -3.0588795016e+01 -2.5878640150e+01 -7.3529008038e+01 8.3737049265e+01 0.0000000000e+00 0.0000e+00 -1.0000e+00
<mgrwt>
<rscale>  2 0.12500000E+03</rscale>
<asrwt>0</asrwt>
<pdfrwt beam="1">  1       21 0.31723173E-02 0.12500000E+03</pdfrwt>
<pdfrwt beam="2">  1       21 0.26629658E-01 0.12500000E+03</pdfrwt>
<totfact> 0.76433506E+06</totfact>
</mgrwt>
</event>
<event>
 6      0 +1.3698540e+00 1.25000000e+02 7.54677100e-03 1.12640300e-01
       21 -1    0    0  502  501 +0.0000000000e+00 +0.0000000000e+00 +4.1125912357e+00 4.1125912357e+00 0.0000000000e+00 0.0000e+00 -1.0000e+00
       21 -1    0    0  501  502 -0.0000000000e+00 -0.0000000000e+00 -9.4982695243e+02 9.4982695243e+02 0.0000000000e+00 0.0000e+00 -1.0000e+00
       25  2    1    2    0    0 +0.0000000000e+00 +0.0000000000e+00 -9.4571436119e+02 9.5393954366e+02 1.2500000000e+02 0.0000e+00 0.0000e+00
      -15  1    3    3    0    0 -2.9392316232e+01 +8.4137819025e+00 -3.7074380671e+02 3.7200648909e+02 1.7770000000e+00 0.0000e+00 -1.0000e+00
       15  1    3    3    0    0 -2.5903574073e+01 +1.3805675211e+01 -2.2694005490e+02 2.2883736160e+02 1.7770000000e+00 0.0000e+00 -1.0000e+00
       22  1    3    3    0    0 +5.5295890304e+01 -2.2219457113e+01 -3.4803049966e+02 3.5309569306e+02 0.0000000000e+00 0.0000e+00 -1.0000e+00
<mgrwt>
<rscale>  2 0.12500000E+03</rscale>
<asrwt>0</asrwt>
<pdfrwt beam="1">  1       21 0.60479237E-03 0.12500000E+03</pdfrwt>
<pdfrwt beam="2">  1       21 0.13968054E+00 0.12500000E+03</pdfrwt>
<totfact> 0.22609167E+06</totfact>
</mgrwt>
</event>
<event>
 6      0 +1.3698540e+00 1.25000000e+02 7.54677100e-03 1.12640300e-01
       21 -1    0    0  502  501 +0.0000000000e+00 +0.0000000000e+00 +1.3865923086e+02 1.3865923086e+02 0.0000000000e+00 0.0000e+00 1.0000e+00
       21 -1    0    0  501  502 -0.0000000000e+00 -0.0000000000e+00 -2.8171582777e+01 2.8171582777e+01 0.0000000000e+00 0.0000e+00 1.0000e+00
       25  2    1    2    0    0 +0.0000000000e+00 +0.0000000000e+00 +1.1048764808e+02 1.6683081364e+02 1.2500000000e+02 0.0000e+00 0.0000e+00
      -15  1    3    3    0    0 -3.7036427281e+01 +4.3761660747e+00 +9.4425684925e+00 3.8511915091e+01 1.7770000000e+00 0.0000e+00 -1.0000e+00
       15  1    3    3    0    0 +3.2799865717e+00 +1.9445786754e+01 +7.1311957134e-01 1.9813207789e+01 1.7770000000e+00 0.0000e+00 -1.0000e+00
       22  1    3    3    0    0 +3.3756440710e+01 -2.3821952828e+01 +1.0033196001e+02 1.0850569075e+02 0.0000000000e+00 0.0000e+00 -1.0000e+00
<mgrwt>
<rscale>  2 0.12500000E+03</rscale>
<asrwt>0</asrwt>
<pdfrwt beam="1">  1       21 0.20391063E-01 0.12500000E+03</pdfrwt>
<pdfrwt beam="2">  1       21 0.41428799E-02 0.12500000E+03</pdfrwt>
<totfact> 0.81870579E+06</totfact>
</mgrwt>
</event>
<event>
 6      0 +1.3698540e+00 1.25000000e+02 7.54677100e-03 1.12640300e-01
       21 -1    0    0  502  501 +0.0000000000e+00 +0.0000000000e+00 +2.0253077575e+01 2.0253077575e+01 0.0000000000e+00 0.0000e+00 -1.0000e+00
       21 -1    0    0  501  502 -0.0000000000e+00 -0.0000000000e+00 -1.9287192209e+02 1.9287192209e+02 0.0000000000e+00 0.0000e+00 -1.0000e+00
       25  2    1    2    0    0 +0.0000000000e+00 +0.0000000000e+00 -1.7261884451e+02 2.1312499966e+02 1.2500000000e+02 0.0000e+00 0.0000e+00
      -15  1    3    3    0    0 +1.4243606753e+00 +6.1371282236e+01 -6.6549415058e+01 9.0556310990e+01 1.7770000000e+00 0.0000e+00 -1.0000e+00
       15  1    3    3    0    0 -1.3814887685e+00 -6.1173734008e+01 -1.0565601803e+02 1.2210850142e+02 1.7770000000e+00 0.0000e+00 -1.0000e+00
       22  1    3    3    0    0 -4.2871906787e-02 -1.9754822771e-01 -4.1341141635e-01 4.6018724649e-01 0.0000000000e+00 0.0000e+00 1.0000e+00
<mgrwt>
<rscale>  2 0.12500000E+03</rscale>
<asrwt>0</asrwt>
<pdfrwt beam="1">  1       21 0.29783936E-02 0.12500000E+03</pdfrwt>
<pdfrwt beam="2">  1       21 0.28363519E-01 0.12500000E+03</pdfrwt>
<totfact> 0.74945313E+06</totfact>
</mgrwt>
</event>
<event>
 6      0 +1.3698540e+00 1.25000000e+02 7.54677100e-03 1.12640300e-01
       21 -1    0    0  502  501 +0.0000000000e+00 +0.0000000000e+00 +3.8001777794e+02 3.8001777794e+02 0.0000000000e+00 0.0000e+00 -1.0000e+00
       21 -1    0    0  501  502 -0.0000000000e+00 -0.0000000000e+00 -1.0279124364e+01 1.0279124364e+01 0.0000000000e+00 0.0000e+00 -1.0000e+00
       25  2    1    2    0    0 +0.0000000000e+00 +0.0000000000e+00 +3.6973865358e+02 3.9029690231e+02 1.2500000000e+02 0.0000e+00 0.0000e+00
      -15  1    3    3    0    0 -1.0874854471e+01 +3.3799662516e+01 +7.7480842589e+01 8.5247394935e+01 1.7770000000e+00 0.0000e+00 -1.0000e+00
       15  1    3    3    0    0 +1.1137700470e+01 +1.1758520770e+01 +2.1306402625e+02 2.1368609733e+02 1.7770000000e+00 0.0000e+00 -1.0000e+00
       22  1    3    3    0    0 -2.6284599879e-01 -4.5558183286e+01 +7.9193784727e+01 9.1363410027e+01 0.0000000000e+00 0.0000e+00 -1.0000e+00
<mgrwt>
<rscale>  2 0.12500000E+03</rscale>
<asrwt>0</asrwt>
<pdfrwt beam="1">  1       21 0.55884958E-01 0.12500000E+03</pdfrwt>
<pdfrwt beam="2">  1       21 0.15116362E-02 0.12500000E+03</pdfrwt>
<totfact> 0.54561811E+06</totfact>
</mgrwt>
</event>
<event>
 6      0 +1.3698540e+00 1.25000000e+02 7.54677100e-03 1.12640300e-01
       21 -1    0    0  502  501 +0.0000000000e+00 +0.0000000000e+00 +2.0105272664e+03 2.0105272664e+03 0.0000000000e+00 0.0000e+00 -1.0000e+00
       21 -1    0    0  501  502 -0.0000000000e+00 -0.0000000000e+00 -1.9428982960e+00 1.9428982960e+00 0.0000000000e+00 0.0000e+00 -1.0000e+00
       25  2    1    2    0    0 +0.0000000000e+00 +0.0000000000e+00 +2.0085843681e+03 2.0124701647e+03 1.2500000000e+02 0.0000e+00 0.0000e+00
      -15  1    3    3    0    0 -1.7898201441e+01 +1.4584820539e+00 +4.0719390693e+02 4.0759355780e+02 1.7770000000e+00 0.0000e+00 -1.0000e+00
       15  1    3    3    0    0 +5.8094426336e+00 +3.7101425620e+01 +2.4352095728e+02 2.4640592479e+02 1.7770000000e+00 0.0000e+00 -1.0000e+00
       22  1    3    3    0    0 +1.2088758808e+01 -3.8559907674e+01 +1.3578695019e+03 1.3584706801e+03 0.0000000000e+00 0.0000e+00 -1.0000e+00
<mgrwt>
<rscale>  2 0.12500000E+03</rscale>
<asrwt>0</asrwt>
<pdfrwt beam="1">  1       21 0.29566432E+00 0.12500000E+03</pdfrwt>
<pdfrwt beam="2">  1       21 0.28572174E-03 0.12500000E+03</pdfrwt>
<totfact> 0.53049697E+05</totfact>
</mgrwt>
</event>
<event>
 6      0 +1.3698540e+00 1.25000000e+02 7.54677100e-03 1.12640300e-01
       21 -1    0    0  502  501 +0.0000000000e+00 +0.0000000000e+00 +3.8022699627e+02 3.8022699627e+02 0.0000000000e+00 0.0000e+00 1.0000e+00
       21 -1    0    0  501  502 -0.0000000000e+00 -0.0000000000e+00 -1.0273468318e+01 1.0273468318e+01 0.0000000000e+00 0.0000e+00 1.0000e+00
       25  2    1    2    0    0 +0.0000000000e+00 +0.0000000000e+00 +3.6995352795e+02 3.9050046459e+02 1.2500000000e+02 0.0000e+00 0.0000e+00
      -15  1    3    3    0    0 +1.6129860814e+01 -5.9882495730e+00 +1.2536607640e+01 2.1362485879e+01 1.7770000000e+00 0.0000e+00 -1.0000e+00
       15  1    3    3    0    0 +6.7049923257e+00 -4.0176395240e+01 +1.6032428814e+02 1.6542712822e+02 1.7770000000e+00 0.0000e+00 -1.0000e+00
       22  1    3    3    0    0 -2.2834853139e+01 +4.6164644813e+01 +1.9709263214e+02 2.0371085046e+02 0.0000000000e+00 0.0000e+00 -1.0000e+00
<mgrwt>
<rscale>  2 0.12500000E+03</rscale>
<asrwt>0</asrwt>
<pdfrwt beam="1">  1       21 0.55915725E-01 0.12500000E+03</pdfrwt>
<pdfrwt beam="2">  1       21 0.15108044E-02 0.12500000E+03</pdfrwt>
<totfact> 0.54542606E+06</totfact>
</mgrwt>
</event>
<event>
 6      0 +1.3698540e+00 1.25000000e+02 7.54677100e-03 1.12640300e-01
       21 -1    0    0  502  501 +0.0000000000e+00 +0.0000000000e+00 +4.6914738281e+02 4.6914738281e+02 0.0000000000e+00 0.0000e+00 1.0000e+00
       21 -1    0    0  501  502 -0.0000000000e+00 -0.0000000000e+00 -8.3262747340e+00 8.3262747340e+00 0.0000000000e+00 0.0000e+00 1.0000e+00
       25  2    1    2    0    0 +0.0000000000e+00 +0.0000000000e+00 +4.6082110808e+02 4.7747365754e+02 1.2500000000e+02 0.0000e+00 0.0000e+00
      -15  1    3    3    0    0 -1.1027799804e+01 -4.0836816606e+01 +2.0569749185e+02 2.1000922323e+02 1.7770000000e+00 0.0000e+00 -1.0000e+00
       15  1    3    3    0    0 -1.5231335940e+01 +2.9191836247e+01 +4.7267042789e+01 5.7632351687e+01 1.7770000000e+00 0.0000e+00 -1.0000e+00
       22  1    3    3    0    0 +2.6259135743e+01 +1.1644980359e+01 +2.0785657355e+02 2.0983208274e+02 0.0000000000e+00 0.0000e+00 -1.0000e+00
<mgrwt>
<rscale>  2 0.12500000E+03</rscale>
<asrwt>0</asrwt>
<pdfrwt beam="1">  1       21 0.68992244E-01 0.12500000E+03</pdfrwt>
<pdfrwt beam="2">  1       21 0.12244525E-02 0.12500000E+03</pdfrwt>
<totfact> 0.47050563E+06</totfact>
</mgrwt>
</event>
<event>
 6      0 +1.3698540e+00 1.25000000e+02 7.54677100e-03 1.12640300e-01
       21 -1    0    0  502  501 +0.0000000000e+00 +0.0000000000e+00 +1.2074220564e+02 1.2074220564e+02 0.0000000000e+00 0.0000e+00 1.0000e+00
       21 -1    0    0  501  502 -0.0000000000e+00 -0.0000000000e+00 -3.2351984788e+01 3.2351984788e+01 0.0000000000e+00 0.0000e+00 1.0000e+00
       25  2    1    2    0    0 +0.0000000000e+00 +0.0000000000e+00 +8.8390220850e+01 1.5309419043e+02 1.2500000000e+02 0.0000e+00 0.0000e+00
      -15  1    3    3    0    0 +8.9820923920e+00 +1.9327748966e+01 +1.2795994190e+01 2.4922581329e+01 1.7770000000e+00 0.0000e+00 -1.0000e+00
       15  1    3    3    0    0 +1.4615054797e+01 +3.1205294023e+01 +6.1705432344e+01 7.0697159148e+01 1.7770000000e+00 0.0000e+00 -1.0000e+00
       22  1    3    3    0    0 -2.3597147189e+01 -5.0533042989e+01 +1.3888794312e+01 5.7474449946e+01 0.0000000000e+00 0.0000e+00 -1.0000e+00
<mgrwt>
<rscale>  2 0.12500000E+03</rscale>
<asrwt>0</asrwt>
<pdfrwt beam="1">  1       21 0.17756207E-01 0.12500000E+03</pdfrwt>
<pdfrwt beam="2">  1       21 0.47576449E-02 0.12500000E+03</pdfrwt>
<totfact> 0.84109863E+06</totfact>
</mgrwt>
</event>
<event>
 6      0 +1.3698540e+00 1.25000000e+02 7.54677100e-03 1.12640300e-01
       21 -1    0    0  502  501 +0.0000000000e+00 +0.0000000000e+00 +4.0896499781e+01 4.0896499781e+01 0.0000000000e+00 0.0000e+00 -1.0000e+00
       21 -1    0    0  501  502 -0.0000000000e+00 -0.0000000000e+00 -9.5515509173e+01 9.5515509173e+01 0.0000000000e+00 0.0000e+00 -1.0000e+00
       25  2    1    2    0    0 +0.0000000000e+00 +0.0000000000e+00 -5.4619009392e+01 1.3641200895e+02 1.2500000000e+02 0.0000e+00 0.0000e+00
      -15  1    3    3    0    0 +1.7804492283e+01 -5.9717843338e+01 -3.2174226968e+01 7.0153826470e+01 1.7770000000e+00 0.0000e+00 1.0000e+00
       15  1    3    3    0    0 -1.7804492284e+01 +5.9717843257e+01 -2.2444782375e+01 6.6258182390e+01 1.7770000000e+00 0.0000e+00 1.0000e+00
       22  1    3    3    0    0 +3.0793857506e-10 +8.0450304474e-08 -5.1564011836e-08 9.5557279330e-08 0.0000000000e+00 0.0000e+00 -1.0000e+00
<mgrwt>
<rscale>  2 0.12500000E+03</rscale>
<asrwt>0</asrwt>
<pdfrwt beam="1">  1       21 0.60141912E-02 0.12500000E+03</pdfrwt>
<pdfrwt beam="2">  1       21 0.14046398E-01 0.12500000E+03</pdfrwt>
<totfact> 0.86959912E+06</totfact>
</mgrwt>
</event>
<event>
 6      0 +1.3698540e+00 1.25000000e+02 7.54677100e-03 1.12640300e-01
       21 -1    0    0  502  501 +0.0000000000e+00 +0.0000000000e+00 +1.9029545030e+01 1.9029545030e+01 0.0000000000e+00 0.0000e+00 -1.0000e+00
       21 -1    0    0  501  502 -0.0000000000e+00 -0.0000000000e+00 -2.0527290557e+02 2.0527290557e+02 0.0000000000e+00 0.0000e+00 -1.0000e+00
       25  2    1    2    0    0 +0.0000000000e+00 +0.0000000000e+00 -1.8624336054e+02 2.2430245060e+02 1.2500000000e+02 0.0000e+00 0.0000e+00
      -15  1    3    3    0    0 -2.0835644919e+00 -4.6373324829e+01 -6.5126365154e+01 7.9996422820e+01 1.7770000000e+00 0.0000e+00 -1.0000e+00
       15  1    3    3    0    0 -2.5639512839e+00 +3.6460047464e+01 -1.2679697719e+02 1.3197173963e+02 1.7770000000e+00 0.0000e+00 -1.0000e+00
       22  1    3    3    0    0 +4.6475157758e+00 +9.9132773654e+00 +5.6799818016e+00 1.2334288154e+01 0.0000000000e+00 0.0000e+00 -1.0000e+00
<mgrwt>
<rscale>  2 0.12500000E+03</rscale>
<asrwt>0</asrwt>
<pdfrwt beam="1">  1       21 0.27984624E-02 0.12500000E+03</pdfrwt>
<pdfrwt beam="2">  1       21 0.30187194E-01 0.12500000E+03</pdfrwt>
<totfact> 0.73406142E+06</totfact>
</mgrwt>
</event>
<event>
 6      0 +1.3698540e+00 1.25000000e+02 7.54677100e-03 1.12640300e-01
       21 -1    0    0  502  501 +0.0000000000e+00 +0.0000000000e+00 +2.9292006600e+01 2.9292006600e+01 0.0000000000e+00 0.0000e+00 -1.0000e+00
       21 -1    0    0  501  502 -0.0000000000e+00 -0.0000000000e+00 -1.3335549364e+02 1.3335549364e+02 0.0000000000e+00 0.0000e+00 -1.0000e+00
       25  2    1    2    0    0 +0.0000000000e+00 +0.0000000000e+00 -1.0406348704e+02 1.6264750024e+02 1.2500000000e+02 0.0000e+00 0.0000e+00
      -15  1    3    3    0    0 -6.0463453630e-01 -4.1127713298e+01 -4.0862400110e+01 5.8006446675e+01 1.7770000000e+00 0.0000e+00 -1.0000e+00
       15  1    3    3    0    0 -3.3621311369e+01 +2.3464330003e+01 -1.6814917116e+01 4.4349368961e+01 1.7770000000e+00 0.0000e+00 -1.0000e+00
       22  1    3    3    0    0 +3.4225945905e+01 +1.7663383295e+01 -4.6386169815e+01 6.0291684607e+01 0.0000000000e+00 0.0000e+00 -1.0000e+00
<mgrwt>
<rscale>  2 0.12500000E+03</rscale>
<asrwt>0</asrwt>
<pdfrwt beam="1">  1       21 0.43076481E-02 0.12500000E+03</pdfrwt>
<pdfrwt beam="2">  1       21 0.19611102E-01 0.12500000E+03</pdfrwt>
<totfact> 0.82548067E+06</totfact>
</mgrwt>
</event>
<event>
 6      0 +1.3698540e+00 1.25000000e+02 7.54677100e-03 1.12640300e-01
       21 -1    0    0  502  501 +0.0000000000e+00 +0.0000000000e+00 +5.5678316454e+01 5.5678316454e+01 0.0000000000e+00 0.0000e+00 -1.0000e+00
       21 -1    0    0  501  502 -0.0000000000e+00 -0.0000000000e+00 -7.0157473300e+01 7.0157473300e+01 0.0000000000e+00 0.0000e+00 -1.0000e+00
       25  2    1    2    0    0 +0.0000000000e+00 +0.0000000000e+00 -1.4479156847e+01 1.2583578975e+02 1.2500000000e+02 0.0000e+00 0.0000e+00
      -15  1    3    3    0    0 -3.2021070299e+01 +2.4024741198e+01 -7.8604134615e+00 4.0834800863e+01 1.7770000000e+00 0.0000e+00 -1.0000e+00
       15  1    3    3    0    0 +4.8357848490e+01 -5.0768730318e+00 +1.6055471783e+01 5.1236628046e+01 1.7770000000e+00 0.0000e+00 -1.0000e+00
       22  1    3    3    0    0 -1.6336778191e+01 -1.8947868166e+01 -2.2674215169e+01 3.3764360845e+01 0.0000000000e+00 0.0000e+00 -1.0000e+00
<mgrwt>
<rscale>  2 0.12500000E+03</rscale>
<asrwt>0</asrwt>
<pdfrwt beam="1">  1       21 0.81879877E-02 0.12500000E+03</pdfrwt>
<pdfrwt beam="2">  1       21 0.10317275E-01 0.12500000E+03</pdfrwt>
<totfact> 0.88841570E+06</totfact>
</mgrwt>
</event>
<event>
 6      0 +1.3698540e+00 1.25000000e+02 7.54677100e-03 1.12640300e-01
       21 -1    0    0  502  501 +0.0000000000e+00 +0.0000000000e+00 +4.8646986551e+01 4.8646986551e+01 0.0000000000e+00 0.0000e+00 -1.0000e+00
       21 -1    0    0  501  502 -0.0000000000e+00 -0.0000000000e+00 -8.0297882294e+01 8.0297882294e+01 0.0000000000e+00 0.0000e+00 -1.0000e+00
       25  2    1    2    0    0 +0.0000000000e+00 +0.0000000000e+00 -3.1650895743e+01 1.2894486884e+02 1.2500000000e+02 0.0000e+00 0.0000e+00
      -15  1    3    3    0    0 -3.2994507796e+01 -2.2277803317e+00 -2.0995532152e+01 3.9211868730e+01 1.7770000000e+00 0.0000e+00 -1.0000e+00
       15  1    3    3    0    0 -2.0894800923e+01 +1.7519475803e+01 +1.1296443678e+01 2.9568430916e+01 1.7770000000e+00 0.0000e+00 -1.0000e+00
       22  1    3    3    0    0 +5.3889308719e+01 -1.5291695472e+01 -2.1951807270e+01 6.0164569200e+01 0.0000000000e+00 0.0000e+00 -1.0000e+00
<mgrwt>
<rscale>  2 0.12500000E+03</rscale>
<asrwt>0</asrwt>
<pdfrwt beam="1">  1       21 0.71539687E-02 0.12500000E+03</pdfrwt>
<pdfrwt beam="2">  1       21 0.11808512E-01 0.12500000E+03</pdfrwt>
<totfact> 0.88289246E+06</totfact>
</mgrwt>
</event>
<event>
 6      0 +1.3698540e+00 1.25000000e+02 7.54677100e-03 1.12640300e-01
       21 -1    0    0  502  501 +0.0000000000e+00 +0.0000000000e+00 +1.2295798325e+01 1.2295798325e+01 0.0000000000e+00 0.0000e+00 1.0000e+00
       21 -1    0    0  501  502 -0.0000000000e+00 -0.0000000000e+00 -3.1768982352e+02 3.1768982352e+02 0.0000000000e+00 0.0000e+00 1.0000e+00
       25  2    1    2    0    0 +0.0000000000e+00 +0.0000000000e+00 -3.0539402520e+02 3.2998562185e+02 1.2500000000e+02 0.0000e+00 0.0000e+00
      -15  1    3    3    0    0 +1.5375315695e+01 -7.2533053766e+00 -1.9253221668e+01 2.5745971436e+01 1.7770000000e+00 0.0000e+00 -1.0000e+00
       15  1    3    3    0    0 +2.3753683468e+01 +2.3300719696e+01 -3.0656087380e+01 4.5278189441e+01 1.7770000000e+00 0.0000e+00 -1.0000e+00
       22  1    3    3    0    0 -3.9128999163e+01 -1.6047414319e+01 -2.5548471615e+02 2.5896146097e+02 0.0000000000e+00 0.0000e+00 -1.0000e+00
<mgrwt>
<rscale>  2 0.12500000E+03</rscale>
<asrwt>0</asrwt>
<pdfrwt beam="1">  1       21 0.18082056E-02 0.12500000E+03</pdfrwt>
<pdfrwt beam="2">  1       21 0.46719092E-01 0.12500000E+03</pdfrwt>
<totfact> 0.60624799E+06</totfact>
</mgrwt>
</event>
<event>
 6      0 +1.3698540e+00 1.25000000e+02 7.54677100e-03 1.12640300e-01
       21 -1    0    0  502  501 +0.0000000000e+00 +0.0000000000e+00 +6.9536373800e+00 6.9536373800e+00 0.0000000000e+00 0.0000e+00 1.0000e+00
       21 -1    0    0  501  502 -0.0000000000e+00 -0.0000000000e+00 -5.6175635664e+02 5.6175635664e+02 0.0000000000e+00 0.0000e+00 1.0000e+00
       25  2    1    2    0    0 +0.0000000000e+00 +0.0000000000e+00 -5.5480271926e+02 5.6870999402e+02 1.2500000000e+02 0.0000e+00 0.0000e+00
      -15  1    3    3    0    0 +3.6451077904e+01 +4.3005865110e+01 -3.9989645937e+02 4.0385457959e+02 1.7770000000e+00 0.0000e+00 1.0000e+00
       15  1    3    3    0    0 -3.6443099301e+01 -4.2994617822e+01 -1.5487240744e+02 1.6481886107e+02 1.7770000000e+00 0.0000e+00 1.0000e+00
       22  1    3    3    0    0 -7.9786024145e-03 -1.1247287579e-02 -3.3852448898e-02 3.6553356491e-02 0.0000000000e+00 0.0000e+00 1.0000e+00
<mgrwt>
<rscale>  2 0.12500000E+03</rscale>
<asrwt>0</asrwt>
<pdfrwt beam="1">  1       21 0.10225933E-02 0.12500000E+03</pdfrwt>
<pdfrwt beam="2">  1       21 0.82611264E-01 0.12500000E+03</pdfrwt>
<totfact> 0.40549261E+06</totfact>
</mgrwt>
</event>
<event>
 6      0 +1.3698540e+00 1.25000000e+02 7.54677100e-03 1.12640300e-01
       21 -1    0    0  502  501 +0.0000000000e+00 +0.0000000000e+00 +9.3794062838e+01 9.3794062838e+01 0.0000000000e+00 0.0000e+00 1.0000e+00
       21 -1    0    0  501  502 -0.0000000000e+00 -0.0000000000e+00 -4.1647092383e+01 4.1647092383e+01 0.0000000000e+00 0.0000e+00 1.0000e+00
       25  2    1    2    0    0 +0.0000000000e+00 +0.0000000000e+00 +5.2146970455e+01 1.3544115522e+02 1.2500000000e+02 0.0000e+00 0.0000e+00
      -15  1    3    3    0    0 +3.5400705222e+01 +4.8424675141e+01 +1.6693793569e+01 6.2289642521e+01 1.7770000000e+00 0.0000e+00 -1.0000e+00
       15  1    3    3    0    0 -3.7003228815e+01 -4.9013660060e+01 +3.1939473642e+01 6.9244967475e+01 1.7770000000e+00 0.0000e+00 -1.0000e+00
       22  1    3    3    0    0 +1.6025235935e+00 +5.8898491896e-01 +3.5137032444e+00 3.9065452246e+00 0.0000000000e+00 0.0000e+00 -1.0000e+00
<mgrwt>
<rscale>  2 0.12500000E+03</rscale>
<asrwt>0</asrwt>
<pdfrwt beam="1">  1       21 0.13793245E-01 0.12500000E+03</pdfrwt>
<pdfrwt beam="2">  1       21 0.61245724E-02 0.12500000E+03</pdfrwt>
<totfact> 0.87128833E+06</totfact>
</mgrwt>
</event>
<event>
 6      0 +1.3698540e+00 1.25000000e+02 7.54677100e-03 1.12640300e-01
       21 -1    0    0  502  501 +0.0000000000e+00 +0.0000000000e+00 +1.1071017170e+03 1.1071017170e+03 0.0000000000e+00 0.0000e+00 1.0000e+00
       21 -1    0    0  501  502 -0.0000000000e+00 -0.0000000000e+00 -3.5283569161e+00 3.5283569161e+00 0.0000000000e+00 0.0000e+00 1.0000e+00
       25  2    1    2    0    0 +0.0000000000e+00 +0.0000000000e+00 +1.1035733601e+03 1.1106300739e+03 1.2500000000e+02 0.0000e+00 0.0000e+00
      -15  1    3    3    0    0 +3.4836200005e+01 +6.7537784932e+00 +2.3945370077e+02 2.4207520917e+02 1.7770000000e+00 0.0000e+00 -1.0000e+00
       15  1    3    3    0    0 -8.7966371694e+00 -2.8806005724e+01 +1.2286941204e+02 1.2651963063e+02 1.7770000000e+00 0.0000e+00 -1.0000e+00
       22  1    3    3    0    0 -2.6039562835e+01 +2.2052227231e+01 +7.4125024981e+02 7.4203523663e+02 0.0000000000e+00 0.0000e+00 -1.0000e+00
<mgrwt>
<rscale>  2 0.12500000E+03</rscale>
<asrwt>0</asrwt>
<pdfrwt beam="1">  1       21 0.16280883E+00 0.12500000E+03</pdfrwt>
<pdfrwt beam="2">  1       21 0.51887679E-03 0.12500000E+03</pdfrwt>
<totfact> 0.18135987E+06</totfact>
</mgrwt>
</event>
<event>
 6      0 +1.3698540e+00 1.25000000e+02 7.54677100e-03 1.12640300e-01
       21 -1    0    0  502  501 +0.0000000000e+00 +0.0000000000e+00 +1.5051565968e+02 1.5051565968e+02 0.0000000000e+00 0.0000e+00 -1.0000e+00
       21 -1    0    0  501  502 -0.0000000000e+00 -0.0000000000e+00 -2.5952449123e+01 2.5952449123e+01 0.0000000000e+00 0.0000e+00 -1.0000e+00
       25  2    1    2    0    0 +0.0000000000e+00 +0.0000000000e+00 +1.2456321055e+02 1.7646810880e+02 1.2500000000e+02 0.0000e+00 0.0000e+00
      -15  1    3    3    0    0 +6.2705825770e+00 -8.5079353569e+00 +2.5272557694e+00 1.1011354168e+01 1.7770000000e+00 0.0000e+00 -1.0000e+00
       15  1    3    3    0    0 -2.0910978523e+01 -4.4064845622e+01 +2.6769557483e+01 5.5666386440e+01 1.7770000000e+00 0.0000e+00 -1.0000e+00
       22  1    3    3    0    0 +1.4640395946e+01 +5.2572780979e+01 +9.5266397294e+01 1.0979036819e+02 0.0000000000e+00 0.0000e+00 -1.0000e+00
<mgrwt>
<rscale>  2 0.12500000E+03</rscale>
<asrwt>0</asrwt>
<pdfrwt beam="1">  1       21 0.22134656E-01 0.12500000E+03</pdfrwt>
<pdfrwt beam="2">  1       21 0.38165367E-02 0.12500000E+03</pdfrwt>
<totfact> 0.80350183E+06</totfact>
</mgrwt>
</event>
<event>
 6      0 +1.3698540e+00 1.25000000e+02 7.54677100e-03 1.12640300e-01
       21 -1    0    0  502  501 +0.0000000000e+00 +0.0000000000e+00 +2.0295701516e+02 2.0295701516e+02 0.0000000000e+00 0.0000e+00 1.0000e+00
       21 -1    0    0  501  502 -0.0000000000e+00 -0.0000000000e+00 -1.9246686284e+01 1.9246686284e+01 0.0000000000e+00 0.0000e+00 1.0000e+00
       25  2    1    2    0    0 +0.0000000000e+00 +0.0000000000e+00 +1.8371032887e+02 2.2220370144e+02 1.2500000000e+02 0.0000e+00 0.0000e+00
      -15  1    3    3    0    0 +4.8051292869e+01 +2.1061598244e+01 +3.1557762249e+01 6.1250042891e+01 1.7770000000e+00 0.0000e+00 -1.0000e+00
       15  1    3    3    0    0 -4.8051297065e+01 -2.1061599575e+01 +1.5215256373e+02 1.6095365328e+02 1.7770000000e+00 0.0000e+00 -1.0000e+00
       22  1    3    3    0    0 +4.1955010592e-06 +1.3319636868e-06 +2.8903361503e-06 5.2659661471e-06 0.0000000000e+00 0.0000e+00 1.0000e+00
<mgrwt>
<rscale>  2 0.12500000E+03</rscale>
<asrwt>0</asrwt>
<pdfrwt beam="1">  1       21 0.29846619E-01 0.12500000E+03</pdfrwt>
<pdfrwt beam="2">  1       21 0.28303951E-02 0.12500000E+03</pdfrwt>
<totfact> 0.73691732E+06</totfact>
</mgrwt>
</event>
<event>
 6      0 +1.3698540e+00 1.25000000e+02 7.54677100e-03 1.12640300e-01
       21 -1    0    0  502  501 +0.0000000000e+00 +0.0000000000e+00 +3.0476604559e+02 3.0476604559e+02 0.0000000000e+00 0.0000e+00 1.0000e+00
       21 -1    0    0  501  502 -0.0000000000e+00 -0.0000000000e+00 -1.2817208664e+01 1.2817208664e+01 0.0000000000e+00 0.0000e+00 1.0000e+00
       25  2    1    2    0    0 +0.0000000000e+00 +0.0000000000e+00 +2.9194883692e+02 3.1758325425e+02 1.2500000000e+02 0.0000e+00 0.0000e+00
      -15  1    3    3    0    0 +2.7087628523e+01 -1.3018226144e+01 +7.7413737372e+01 8.3061773963e+01 1.7770000000e+00 0.0000e+00 -1.0000e+00
       15  1    3    3    0    0 -2.1018464178e+01 -3.6695222668e+01 +7.2950770369e+01 8.4340309636e+01 1.7770000000e+00 0.0000e+00 -1.0000e+00
       22  1    3    3    0    0 -6.0691643448e+00 +4.9713448813e+01 +1.4158432917e+02 1.5018117064e+02 0.0000000000e+00 0.0000e+00 -1.0000e+00
<mgrwt>
<rscale>  2 0.12500000E+03</rscale>
<asrwt>0</asrwt>
<pdfrwt beam="1">  1       21 0.44818531E-01 0.12500000E+03</pdfrwt>
<pdfrwt beam="2">  1       21 0.18848838E-02 0.12500000E+03</pdfrwt>
<totfact> 0.61971781E+06</totfact>
</mgrwt>
</event>
<event>
 6      0 +1.3698540e+00 1.25000000e+02 7.54677100e-03 1.12640300e-01
       21 -1    0    0  502  501 +0.0000000000e+00 +0.0000000000e+00 +7.5019491494e+00 7.5019491494e+00 0.0000000000e+00 0.0000e+00 -1.0000e+00
       21 -1    0    0  501  502 -0.0000000000e+00 -0.0000000000e+00 -5.2069801091e+02 5.2069801091e+02 0.0000000000e+00 0.0000e+00 -1.0000e+00
       25  2    1    2    0    0 +0.0000000000e+00 +0.0000000000e+00 -5.1319606176e+02 5.2819996006e+02 1.2500000000e+02 0.0000e+00 0.0000e+00
      -15  1    3    3    0    0 +1.1406149656e+01 -2.5890250386e-01 -5.1615110068e+02 5.1628023760e+02 1.7770000000e+00 0.0000e+00 1.0000e+00
       15  1    3    3    0    0 -1.1406489250e+01 +2.5894966114e-01 +2.9554315728e+00 1.1919201176e+01 1.7770000000e+00 0.0000e+00 1.0000e+00
       22  1    3    3    0    0 +3.3959343085e-04 -4.7157277125e-05 -3.9262745791e-04 5.2125217291e-04 0.0000000000e+00 0.0000e+00 -1.0000e+00
<mgrwt>
<rscale>  2 0.12500000E+03</rscale>
<asrwt>0</asrwt>
<pdfrwt beam="1">  1       21 0.11032280E-02 0.12500000E+03</pdfrwt>
<pdfrwt beam="2">  1       21 0.76573223E-01 0.12500000E+03</pdfrwt>
<totfact> 0.43292336E+06</totfact>
</mgrwt>
</event>
<event>
 6      0 +1.3698540e+00 1.25000000e+02 7.54677100e-03 1.12640300e-01
       21 -1    0    0  502  501 +0.0000000000e+00 +0.0000000000e+00 +1.1447002752e+01 1.1447002752e+01 0.0000000000e+00 0.0000e+00 -1.0000e+00
       21 -1    0    0  501  502 -0.0000000000e+00 -0.0000000000e+00 -3.4124653279e+02 3.4124653279e+02 0.0000000000e+00 0.0000e+00 -1.0000e+00
       25  2    1    2    0    0 +0.0000000000e+00 +0.0000000000e+00 -3.2979953004e+02 3.5269353554e+02 1.2500000000e+02 0.0000e+00 0.0000e+00
      -15  1    3    3    0    0 +5.3981531970e+01 +1.3202541222e+01 -2.4543899031e+02 2.5165803898e+02 1.7770000000e+00 0.0000e+00 1.0000e+00
       15  1    3    3    0    0 -5.3981527885e+01 -1.3202545080e+01 -8.4360530999e+01 1.0103548619e+02 1.7770000000e+00 0.0000e+00 1.0000e+00
       22  1    3    3    0    0 -4.0846576845e-06 +3.8585260895e-06 -8.7579902467e-06 1.0405529547e-05 0.0000000000e+00 0.0000e+00 1.0000e+00
<mgrwt>
<rscale>  2 0.12500000E+03</rscale>
<asrwt>0</asrwt>
<pdfrwt beam="1">  1       21 0.16833830E-02 0.12500000E+03</pdfrwt>
<pdfrwt beam="2">  1       21 0.50183308E-01 0.12500000E+03</pdfrwt>
<totfact> 0.58253776E+06</totfact>
</mgrwt>
</event>
<event>
 6      0 +1.3698540e+00 1.25000000e+02 7.54677100e-03 1.12640300e-01
       21 -1    0    0  502  501 +0.0000000000e+00 +0.0000000000e+00 +1.0296968654e+02 1.0296968654e+02 0.0000000000e+00 0.0000e+00 1.0000e+00
       21 -1    0    0  501  502 -0.0000000000e+00 -0.0000000000e+00 -3.7935922029e+01 3.7935922029e+01 0.0000000000e+00 0.0000e+00 1.0000e+00
       25  2    1    2    0    0 +0.0000000000e+00 +0.0000000000e+00 +6.5033764514e+01 1.4090560857e+02 1.2500000000e+02 0.0000e+00 0.0000e+00
      -15  1    3    3    0    0 -2.7929333044e+01 -2.6500875250e+00 -1.5240830018e+00 2.8152285275e+01 1.7770000000e+00 0.0000e+00 -1.0000e+00
       15  1    3    3    0    0 +5.1390952235e+01 +9.4092258643e+00 +1.2962564756e+01 5.3858604856e+01 1.7770000000e+00 0.0000e+00 -1.0000e+00
       22  1    3    3    0    0 -2.3461619191e+01 -6.7591383393e+00 +5.3595282760e+01 5.8894718441e+01 0.0000000000e+00 0.0000e+00 -1.0000e+00
<mgrwt>
<rscale>  2 0.12500000E+03</rscale>
<asrwt>0</asrwt>
<pdfrwt beam="1">  1       21 0.15142601E-01 0.12500000E+03</pdfrwt>
<pdfrwt beam="2">  1       21 0.55788121E-02 0.12500000E+03</pdfrwt>
<totfact> 0.86183594E+06</totfact>
</mgrwt>
</event>
<event>
 6      0 +1.3698540e+00 1.25000000e+02 7.54677100e-03 1.12640300e-01
       21 -1    0    0  502  501 +0.0000000000e+00 +0.0000000000e+00 +3.7339628218e+01 3.7339628218e+01 0.0000000000e+00 0.0000e+00 1.0000e+00
       21 -1    0    0  501  502 -0.0000000000e+00 -0.0000000000e+00 -1.0461405714e+02 1.0461405714e+02 0.0000000000e+00 0.0000e+00 1.0000e+00
       25  2    1    2    0    0 +0.0000000000e+00 +0.0000000000e+00 -6.7274428922e+01 1.4195368536e+02 1.2500000000e+02 0.0000e+00 0.0000e+00
      -15  1    3    3    0    0 -2.1347663190e+01 -1.4397116755e+01 -3.2895360933e+01 4.1812225418e+01 1.7770000000e+00 0.0000e+00 -1.0000e+00
       15  1    3    3    0    0 -3.5729281702e+01 +3.4953695156e+00 -1.2768991228e+01 3.8144515267e+01 1.7770000000e+00 0.0000e+00 -1.0000e+00
       22  1    3    3    0    0 +5.7076944892e+01 +1.0901747240e+01 -2.1610076760e+01 6.1996944672e+01 0.0000000000e+00 0.0000e+00 -1.0000e+00
<mgrwt>
<rscale>  2 0.12500000E+03</rscale>
<asrwt>0</asrwt>
<pdfrwt beam="1">  1       21 0.54911218E-02 0.12500000E+03</pdfrwt>
<pdfrwt beam="2">  1       21 0.15384420E-01 0.12500000E+03</pdfrwt>
<totfact> 0.86001894E+06</totfact>
</mgrwt>
</event>
<event>
 6      0 +1.3698540e+00 1.25000000e+02 7.54677100e-03 1.12640300e-01
       21 -1    0    0  502  501 +0.0000000000e+00 +0.0000000000e+00 +9.7292621875e+01 9.7292621875e+01 0.0000000000e+00 0.0000e+00 1.0000e+00
       21 -1    0    0  501  502 -0.0000000000e+00 -0.0000000000e+00 -4.0149498746e+01 4.0149498746e+01 0.0000000000e+00 0.0000e+00 1.0000e+00
       25  2    1    2    0    0 +0.0000000000e+00 +0.0000000000e+00 +5.7143123129e+01 1.3744212062e+02 1.2500000000e+02 0.0000e+00 0.0000e+00
      -15  1    3    3    0    0 +3.4614241134e+00 +1.5489658834e+01 -5.6132339371e+00 1.6928588598e+01 1.7770000000e+00 0.0000e+00 -1.0000e+00
       15  1    3    3    0    0 +2.2215121968e+01 -2.2207303167e+01 -1.7487001500e+01 3.5994845581e+01 1.7770000000e+00 0.0000e+00 -1.0000e+00
       22  1    3    3    0    0 -2.5676546081e+01 +6.7176443331e+00 +8.0243358565e+01 8.4518686443e+01 0.0000000000e+00 0.0000e+00 -1.0000e+00
<mgrwt>
<rscale>  2 0.12500000E+03</rscale>
<asrwt>0</asrwt>
<pdfrwt beam="1">  1       21 0.14307738E-01 0.12500000E+03</pdfrwt>
<pdfrwt beam="2">  1       21 0.59043381E-02 0.12500000E+03</pdfrwt>
<totfact> 0.86781569E+06</totfact>
</mgrwt>
</event>
<event>
 6      0 +1.3698540e+00 1.25000000e+02 7.54677100e-03 1.12640300e-01
       21 -1    0    0  502  501 +0.0000000000e+00 +0.0000000000e+00 +5.8017163261e+01 5.8017163261e+01 0.0000000000e+00 0.0000e+00 1.0000e+00
       21 -1    0    0  501  502 -0.0000000000e+00 -0.0000000000e+00 -6.7329213985e+01 6.7329213985e+01 0.0000000000e+00 0.0000e+00 1.0000e+00
       25  2    1    2    0    0 +0.0000000000e+00 +0.0000000000e+00 -9.3120507246e+00 1.2534637725e+02 1.2500000000e+02 0.0000e+00 0.0000e+00
      -15  1    3    3    0    0 +4.4616199991e+00 +5.0675738377e+01 +3.1709521906e+01 5.9971560107e+01 1.7770000000e+00 0.0000e+00 1.0000e+00
       15  1    3    3    0    0 -4.4616213631e+00 -5.0675748265e+01 -4.1021578788e+01 6.5374805412e+01 1.7770000000e+00 0.0000e+00 1.0000e+00
       22  1    3    3    0    0 +1.3640119132e-06 +9.8872752637e-06 +6.1574127271e-06 1.1727423934e-05 0.0000000000e+00 0.0000e+00 -1.0000e+00
<mgrwt>
<rscale>  2 0.12500000E+03</rscale>
<asrwt>0</asrwt>
<pdfrwt beam="1">  1       21 0.85319358E-02 0.12500000E+03</pdfrwt>
<pdfrwt beam="2">  1       21 0.99013549E-02 0.12500000E+03</pdfrwt>
<totfact> 0.88932412E+06</totfact>
</mgrwt>
</event>
<event>
 6      0 +1.3698540e+00 1.25000000e+02 7.54677100e-03 1.12640300e-01
       21 -1    0    0  502  501 +0.0000000000e+00 +0.0000000000e+00 +4.8983803764e+02 4.8983803764e+02 0.0000000000e+00 0.0000e+00 1.0000e+00
       21 -1    0    0  501  502 -0.0000000000e+00 -0.0000000000e+00 -7.9745746550e+00 7.9745746550e+00 0.0000000000e+00 0.0000e+00 1.0000e+00
       25  2    1    2    0    0 +0.0000000000e+00 +0.0000000000e+00 +4.8186346298e+02 4.9781261229e+02 1.2500000000e+02 0.0000e+00 0.0000e+00
      -15  1    3    3    0    0 -3.1159485755e+01 +5.3330074054e+01 +2.7830828631e+02 2.8508537372e+02 1.7770000000e+00 0.0000e+00 -1.0000e+00
       15  1    3    3    0    0 +3.1159485737e+01 -5.3330074030e+01 +2.0355517661e+02 2.1272723850e+02 1.7770000000e+00 0.0000e+00 -1.0000e+00
       22  1    3    3    0    0 +1.8060175304e-08 -2.3470242739e-08 +5.8158254720e-08 6.5264115855e-08 0.0000000000e+00 0.0000e+00 -1.0000e+00
<mgrwt>
<rscale>  2 0.12500000E+03</rscale>
<asrwt>0</asrwt>
<pdfrwt beam="1">  1       21 0.72034985E-01 0.12500000E+03</pdfrwt>
<pdfrwt beam="2">  1       21 0.11727319E-02 0.12500000E+03</pdfrwt>
<totfact> 0.45489085E+06</totfact>
</mgrwt>
</event>
<event>
 6      0 +1.3698540e+00 1.25000000e+02 7.54677100e-03 1.12640300e-01
       21 -1    0    0  502  501 +0.0000000000e+00 +0.0000000000e+00 +4.7175280039e+00 4.7175280039e+00 0.0000000000e+00 0.0000e+00 -1.0000e+00
       21 -1    0    0  501  502 -0.0000000000e+00 -0.0000000000e+00 -8.2802900094e+02 8.2802900094e+02 0.0000000000e+00 0.0000e+00 -1.0000e+00
       25  2    1    2    0    0 +0.0000000000e+00 +0.0000000000e+00 -8.2331147293e+02 8.3274652894e+02 1.2500000000e+02 0.0000e+00 0.0000e+00
      -15  1    3    3    0    0 +3.6215403960e+01 -6.0807312087e+00 -1.5531273573e+02 1.5960493221e+02 1.7770000000e+00 0.0000e+00 -1.0000e+00
       15  1    3    3    0    0 +1.7793332497e+01 -1.3732738272e+01 -1.1738304220e+02 1.1952877105e+02 1.7770000000e+00 0.0000e+00 -1.0000e+00
       22  1    3    3    0    0 -5.4008736457e+01 +1.9813469481e+01 -5.5061569490e+02 5.5361282559e+02 0.0000000000e+00 0.0000e+00 -1.0000e+00
<mgrwt>
<rscale>  2 0.12500000E+03</rscale>
<asrwt>0</asrwt>
<pdfrwt beam="1">  1       21 0.69375414E-03 0.12500000E+03</pdfrwt>
<pdfrwt beam="2">  1       21 0.12176897E+00 0.12500000E+03</pdfrwt>
<totfact> 0.26949144E+06</totfact>
</mgrwt>
</event>
<event>
 6      0 +1.3698540e+00 1.25000000e+02 7.54677100e-03 1.12640300e-01
       21 -1    0    0  502  501 +0.0000000000e+00 +0.0000000000e+00 +6.9255985213e+00 6.9255985213e+00 0.0000000000e+00 0.0000e+00 -1.0000e+00
       21 -1    0    0  501  502 -0.0000000000e+00 -0.0000000000e+00 -5.6403067374e+02 5.6403067374e+02 0.0000000000e+00 0.0000e+00 -1.0000e+00
       25  2    1    2    0    0 +0.0000000000e+00 +0.0000000000e+00 -5.5710507522e+02 5.7095627226e+02 1.2500000000e+02 0.0000e+00 0.0000e+00
      -15  1    3    3    0    0 -2.5830020443e+00 -1.4505812247e+01 -8.4998218455e+01 8.6284096786e+01 1.7770000000e+00 0.0000e+00 -1.0000e+00
       15  1    3    3    0    0 +8.0188427991e+00 +4.1526309229e+01 -4.4133968712e+02 4.4336510164e+02 1.7770000000e+00 0.0000e+00 -1.0000e+00
       22  1    3    3    0    0 -5.4358407548e+00 -2.7020496982e+01 -3.0767169698e+01 4.1307073887e+01 0.0000000000e+00 0.0000e+00 -1.0000e+00
<mgrwt>
<rscale>  2 0.12500000E+03</rscale>
<asrwt>0</asrwt>
<pdfrwt beam="1">  1       21 0.10184704E-02 0.12500000E+03</pdfrwt>
<pdfrwt beam="2">  1       21 0.82945684E-01 0.12500000E+03</pdfrwt>
<totfact> 0.40401776E+06</totfact>
</mgrwt>
</event>
<event>
 6      0 +1.3698540e+00 1.25000000e+02 7.54677100e-03 1.12640300e-01
       21 -1    0    0  502  501 +0.0000000000e+00 +0.0000000000e+00 +6.3300014569e+00 6.3300014569e+00 0.0000000000e+00 0.0000e+00 1.0000e+00
       21 -1    0    0  501  502 -0.0000000000e+00 -0.0000000000e+00 -6.1710096381e+02 6.1710096381e+02 0.0000000000e+00 0.0000e+00 1.0000e+00
       25  2    1    2    0    0 +0.0000000000e+00 +0.0000000000e+00 -6.1077096236e+02 6.2343096527e+02 1.2500000000e+02 0.0000e+00 0.0000e+00
      -15  1    3    3    0    0 +1.0614322423e+01 -3.6141043603e+01 -2.6987307066e+02 2.7249490063e+02 1.7770000000e+00 0.0000e+00 -1.0000e+00
       15  1    3    3    0    0 -3.7098042519e+01 +1.1816868804e+01 -2.5272305095e+02 2.5571077677e+02 1.7770000000e+00 0.0000e+00 -1.0000e+00
       22  1    3    3    0    0 +2.6483720096e+01 +2.4324174799e+01 -8.8174840844e+01 9.5225287963e+01 0.0000000000e+00 0.0000e+00 -1.0000e+00
<mgrwt>
<rscale>  2 0.12500000E+03</rscale>
<asrwt>0</asrwt>
<pdfrwt beam="1">  1       21 0.93088329E-03 0.12500000E+03</pdfrwt>
<pdfrwt beam="2">  1       21 0.90750072E-01 0.12500000E+03</pdfrwt>
<totfact> 0.37069884E+06</totfact>
</mgrwt>
</event>
<event>
 6      0 +1.3698540e+00 1.25000000e+02 7.54677100e-03 1.12640300e-01
       21 -1    0    0  502  501 +0.0000000000e+00 +0.0000000000e+00 +4.4812531975e+01 4.4812531975e+01 0.0000000000e+00 0.0000e+00 1.0000e+00
       21 -1    0    0  501  502 -0.0000000000e+00 -0.0000000000e+00 -8.7168696520e+01 8.7168696520e+01 0.0000000000e+00 0.0000e+00 1.0000e+00
       25  2    1    2    0    0 +0.0000000000e+00 +0.0000000000e+00 -4.2356164545e+01 1.3198122849e+02 1.2500000000e+02 0.0000e+00 0.0000e+00
      -15  1    3    3    0    0 -3.6494102105e+00 -5.1935457591e+01 -3.8244384392e+01 6.4625077304e+01 1.7770000000e+00 0.0000e+00 -1.0000e+00
       15  1    3    3    0    0 -1.4044647562e+01 +4.5931166796e+00 -7.5690095389e+00 1.6697199777e+01 1.7770000000e+00 0.0000e+00 -1.0000e+00
       22  1    3    3    0    0 +1.7694057773e+01 +4.7342340911e+01 +3.4572293837e+00 5.0658951415e+01 0.0000000000e+00 0.0000e+00 -1.0000e+00
<mgrwt>
<rscale>  2 0.12500000E+03</rscale>
<asrwt>0</asrwt>
<pdfrwt beam="1">  1       21 0.65900782E-02 0.12500000E+03</pdfrwt>
<pdfrwt beam="2">  1       21 0.12818926E-01 0.12500000E+03</pdfrwt>
<totfact> 0.87739576E+06</totfact>
</mgrwt>
</event>
<event>
 6      0 +1.3698540e+00 1.25000000e+02 7.54677100e-03 1.12640300e-01
       21 -1    0    0  502  501 +0.0000000000e+00 +0.0000000000e+00 +4.3877267474e+01 4.3877267474e+01 0.0000000000e+00 0.0000e+00 -1.0000e+00
       21 -1    0    0  501  502 -0.0000000000e+00 -0.0000000000e+00 -8.9026738101e+01 8.9026738101e+01 0.0000000000e+00 0.0000e+00 -1.0000e+00
       25  2    1    2    0    0 +0.0000000000e+00 +0.0000000000e+00 -4.5149470627e+01 1.3290400558e+02 1.2500000000e+02 0.0000e+00 0.0000e+00
      -15  1    3    3    0    0 +2.2246267076e+01 -4.4893951539e+01 -6.2249357842e+01 7.9928114981e+01 1.7770000000e+00 0.0000e+00 -1.0000e+00
       15  1    3    3    0    0 -2.2247521055e+01 +4.4889170625e+01 +1.7104660869e+01 5.2969019105e+01 1.7770000000e+00 0.0000e+00 -1.0000e+00
       22  1    3    3    0    0 +1.2539790737e-03 +4.7809144506e-03 -4.7736521248e-03 6.8714890023e-03 0.0000000000e+00 0.0000e+00 -1.0000e+00
<mgrwt>
<rscale>  2 0.12500000E+03</rscale>
<asrwt>0</asrwt>
<pdfrwt beam="1">  1       21 0.64525395E-02 0.12500000E+03</pdfrwt>
<pdfrwt beam="2">  1       21 0.13092167E-01 0.12500000E+03</pdfrwt>
<totfact> 0.87575098E+06</totfact>
</mgrwt>
</event>
<event>
 6      0 +1.3698540e+00 1.25000000e+02 7.54677100e-03 1.12640300e-01
       21 -1    0    0  502  501 +0.0000000000e+00 +0.0000000000e+00 +7.3874841196e+00 7.3874841196e+00 0.0000000000e+00 0.0000e+00 -1.0000e+00
       21 -1    0    0  501  502 -0.0000000000e+00 -0.0000000000e+00 -5.2876594206e+02 5.2876594206e+02 0.0000000000e+00 0.0000e+00 -1.0000e+00
       25  2    1    2    0    0 +0.0000000000e+00 +0.0000000000e+00 -5.2137845794e+02 5.3615342618e+02 1.2500000000e+02 0.0000e+00 0.0000e+00
      -15  1    3    3    0    0 -3.8930618804e+00 -9.6033011460e+00 -2.1730849114e+00 1.0735890773e+01 1.7770000000e+00 0.0000e+00 -1.0000e+00
       15  1    3    3    0    0 +4.1432594178e+01 +2.0468768876e+00 -2.3434326352e+02 2.3799321934e+02 1.7770000000e+00 0.0000e+00 -1.0000e+00
       22  1    3    3    0    0 -3.7539532298e+01 +7.5564242584e+00 -2.8486210950e+02 2.8742431606e+02 0.0000000000e+00 0.0000e+00 -1.0000e+00
<mgrwt>
<rscale>  2 0.12500000E+03</rscale>
<asrwt>0</asrwt>
<pdfrwt beam="1">  1       21 0.10863946E-02 0.12500000E+03</pdfrwt>
<pdfrwt beam="2">  1       21 0.77759705E-01 0.12500000E+03</pdfrwt>
<totfact> 0.42739389E+06</totfact>
</mgrwt>
</event>
<event>
 6      0 +1.3698540e+00 1.25000000e+02 7.54677100e-03 1.12640300e-01
       21 -1    0    0  502  501 +0.0000000000e+00 +0.0000000000e+00 +1.0184341699e+02 1.0184341699e+02 0.0000000000e+00 0.0000e+00 1.0000e+00
       21 -1    0    0  501  502 -0.0000000000e+00 -0.0000000000e+00 -3.8355449133e+01 3.8355449133e+01 0.0000000000e+00 0.0000e+00 1.0000e+00
       25  2    1    2    0    0 +0.0000000000e+00 +0.0000000000e+00 +6.3487967861e+01 1.4019886613e+02 1.2500000000e+02 0.0000e+00 0.0000e+00
      -15  1    3    3    0    0 -1.7355840244e+01 +2.4172162443e+01 +6.0443159765e+01 6.7394746970e+01 1.7770000000e+00 0.0000e+00 -1.0000e+00
       15  1    3    3    0    0 +1.3389268861e+01 -2.1154522870e+01 -3.0154312489e+01 3.9232979101e+01 1.7770000000e+00 0.0000e+00 -1.0000e+00
       22  1    3    3    0    0 +3.9665713830e+00 -3.0176395725e+00 +3.3199120583e+01 3.3571140055e+01 0.0000000000e+00 0.0000e+00 -1.0000e+00
<mgrwt>
<rscale>  2 0.12500000E+03</rscale>
<asrwt>0</asrwt>
<pdfrwt beam="1">  1       21 0.14976973E-01 0.12500000E+03</pdfrwt>
<pdfrwt beam="2">  1       21 0.56405072E-02 0.12500000E+03</pdfrwt>
<totfact> 0.86305920E+06</totfact>
</mgrwt>
</event>
<event>
 6      0 +1.3698540e+00 1.25000000e+02 7.54677100e-03 1.12640300e-01
       21 -1    0    0  502  501 +0.0000000000e+00 +0.0000000000e+00 +2.2734890531e+02 2.2734890531e+02 0.0000000000e+00 0.0000e+00 1.0000e+00
       21 -1    0    0  501  502 -0.0000000000e+00 -0.0000000000e+00 -1.7181740966e+01 1.7181740966e+01 0.0000000000e+00 0.0000e+00 1.0000e+00
       25  2    1    2    0    0 +0.0000000000e+00 +0.0000000000e+00 +2.1016716435e+02 2.4453064628e+02 1.2500000000e+02 0.0000e+00 0.0000e+00
      -15  1    3    3    0    0 +1.7778358591e+01 +5.9754662931e+01 +1.0971143820e+02 1.2620002844e+02 1.7770000000e+00 0.0000e+00 -1.0000e+00
       15  1    3    3    0    0 -1.7811625922e+01 -5.9831166126e+01 +1.0029043771e+02 1.1814547000e+02 1.7770000000e+00 0.0000e+00 -1.0000e+00
       22  1    3    3    0    0 +3.3267331258e-02 +7.6503194225e-02 +1.6528845124e-01 1.8514784949e-01 0.0000000000e+00 0.0000e+00 1.0000e+00
<mgrwt>
<rscale>  2 0.12500000E+03</rscale>
<asrwt>0</asrwt>
<pdfrwt beam="1">  1       21 0.33433661E-01 0.12500000E+03</pdfrwt>
<pdfrwt beam="2">  1       21 0.25267267E-02 0.12500000E+03</pdfrwt>
<totfact> 0.70711563E+06</totfact>
</mgrwt>
</event>
<event>
 6      0 +1.3698540e+00 1.25000000e+02 7.54677100e-03 1.12640300e-01
       21 -1    0    0  502  501 +0.0000000000e+00 +0.0000000000e+00 +1.9846393397e+02 1.9846393397e+02 0.0000000000e+00 0.0000e+00 -1.0000e+00
       21 -1    0    0  501  502 -0.0000000000e+00 -0.0000000000e+00 -1.9682417465e+01 1.9682417465e+01 0.0000000000e+00 0.0000e+00 -1.0000e+00
       25  2    1    2    0    0 +0.0000000000e+00 +0.0000000000e+00 +1.7878151650e+02 2.1814635143e+02 1.2500000000e+02 0.0000e+00 0.0000e+00
      -15  1    3    3    0    0 -2.2536539738e+01 -4.7372955617e+01 +3.0183419847e+01 6.0549889428e+01 1.7770000000e+00 0.0000e+00 -1.0000e+00
       15  1    3    3    0    0 +2.2536537681e+01 +4.7372951832e+01 +1.4859809285e+02 1.5759645626e+02 1.7770000000e+00 0.0000e+00 -1.0000e+00
       22  1    3    3    0    0 +2.0572123221e-06 +3.7846803836e-06 +3.7970890421e-06 5.7422829379e-06 0.0000000000e+00 0.0000e+00 -1.0000e+00
<mgrwt>
<rscale>  2 0.12500000E+03</rscale>
<asrwt>0</asrwt>
<pdfrwt beam="1">  1       21 0.29185872E-01 0.12500000E+03</pdfrwt>
<pdfrwt beam="2">  1       21 0.28944733E-02 0.12500000E+03</pdfrwt>
<totfact> 0.74248167E+06</totfact>
</mgrwt>
</event>
<event>
 6      0 +1.3698540e+00 1.25000000e+02 7.54677100e-03 1.12640300e-01
       21 -1    0    0  502  501 +0.0000000000e+00 +0.0000000000e+00 +1.8460207871e+02 1.8460207871e+02 0.0000000000e+00 0.0000e+00 1.0000e+00
       21 -1    0    0  501  502 -0.0000000000e+00 -0.0000000000e+00 -2.1160379273e+01 2.1160379273e+01 0.0000000000e+00 0.0000e+00 1.0000e+00
       25  2    1    2    0    0 +0.0000000000e+00 +0.0000000000e+00 +1.6344169943e+02 2.0576245798e+02 1.2500000000e+02 0.0000e+00 0.0000e+00
      -15  1    3    3    0    0 -2.1991635450e+01 -3.4716477683e+01 +1.5908825079e+02 1.6432009957e+02 1.7770000000e+00 0.0000e+00 1.0000e+00
       15  1    3    3    0    0 +2.1942058260e+01 +3.4720808361e+01 +4.2536715410e+00 4.1330858987e+01 1.7770000000e+00 0.0000e+00 1.0000e+00
       22  1    3    3    0    0 +4.9577189233e-02 -4.3306784261e-03 +9.9777088053e-02 1.1149941600e-01 0.0000000000e+00 0.0000e+00 -1.0000e+00
<mgrwt>
<rscale>  2 0.12500000E+03</rscale>
<asrwt>0</asrwt>
<pdfrwt beam="1">  1       21 0.27147364E-01 0.12500000E+03</pdfrwt>
<pdfrwt beam="2">  1       21 0.31118206E-02 0.12500000E+03</pdfrwt>
<totfact> 0.75986422E+06</totfact>
</mgrwt>
</event>
<event>
 6      0 +1.3698540e+00 1.25000000e+02 7.54677100e-03 1.12640300e-01
       21 -1    0    0  502  501 +0.0000000000e+00 +0.0000000000e+00 +2.0588431848e+00 2.0588431848e+00 0.0000000000e+00 0.0000e+00 1.0000e+00
       21 -1    0    0  501  502 -0.0000000000e+00 -0.0000000000e+00 -1.8973033152e+03 1.8973033152e+03 0.0000000000e+00 0.0000e+00 1.0000e+00
       25  2    1    2    0    0 +0.0000000000e+00 +0.0000000000e+00 -1.8952444720e+03 1.8993621584e+03 1.2500000000e+02 0.0000e+00 0.0000e+00
      -15  1    3    3    0    0 -5.5051457588e+01 -2.3084572932e+01 -1.2276091025e+03 1.2290609532e+03 1.7770000000e+00 0.0000e+00 -1.0000e+00
       15  1    3    3    0    0 +5.5051460090e+01 +2.3084574062e+01 -6.6763529428e+02 6.7030112988e+02 1.7770000000e+00 0.0000e+00 -1.0000e+00
       22  1    3    3    0    0 -2.5023319446e-06 -1.1302349998e-06 -6.8207021861e-05 6.8262265765e-05 0.0000000000e+00 0.0000e+00 1.0000e+00
<mgrwt>
<rscale>  2 0.12500000E+03</rscale>
<asrwt>0</asrwt>
<pdfrwt beam="1">  1       21 0.30277125E-03 0.12500000E+03</pdfrwt>
<pdfrwt beam="2">  1       21 0.27901501E+00 0.12500000E+03</pdfrwt>
<totfact> 0.61700528E+05</totfact>
</mgrwt>
</event>
<event>
 6      0 +1.3698540e+00 1.25000000e+02 7.54677100e-03 1.12640300e-01
       21 -1    0    0  502  501 +0.0000000000e+00 +0.0000000000e+00 +6.9979162720e+01 6.9979162720e+01 0.0000000000e+00 0.0000e+00 1.0000e+00
       21 -1    0    0  501  502 -0.0000000000e+00 -0.0000000000e+00 -5.5820187727e+01 5.5820187727e+01 0.0000000000e+00 0.0000e+00 1.0000e+00
       25  2    1    2    0    0 +0.0000000000e+00 +0.0000000000e+00 +1.4158974993e+01 1.2579935045e+02 1.2500000000e+02 0.0000e+00 0.0000e+00
      -15  1    3    3    0    0 -8.7536236686e+00 +3.9014136681e+01 -2.1102481798e+01 4.5246008171e+01 1.7770000000e+00 0.0000e+00 -1.0000e+00
       15  1    3    3    0    0 -1.6855274275e+01 +7.2534973257e+00 +1.5547197419e+01 2.4116106048e+01 1.7770000000e+00 0.0000e+00 -1.0000e+00
       22  1    3    3    0    0 +2.5608897943e+01 -4.6267634007e+01 +1.9714259373e+01 5.6437236229e+01 0.0000000000e+00 0.0000e+00 -1.0000e+00
<mgrwt>
<rscale>  2 0.12500000E+03</rscale>
<asrwt>0</asrwt>
<pdfrwt beam="1">  1       21 0.10291053E-01 0.12500000E+03</pdfrwt>
<pdfrwt beam="2">  1       21 0.82088511E-02 0.12500000E+03</pdfrwt>
<totfact> 0.88848217E+06</totfact>
</mgrwt>
</event>
<event>
 6      0 +1.3698540e+00 1.25000000e+02 7.54677100e-03 1.12640300e-01
       21 -1    0    0  502  501 +0.0000000000e+00 +0.0000000000e+00 +1.0813834040e+03 1.0813834040e+03 0.0000000000e+00 0.0000e+00 -1.0000e+00
       21 -1    0    0  501  502 -0.0000000000e+00 -0.0000000000e+00 -3.6122710831e+00 3.6122710831e+00 0.0000000000e+00 0.0000e+00 -1.0000e+00
       25  2    1    2    0    0 +0.0000000000e+00 +0.0000000000e+00 +1.0777711329e+03 1.0849956751e+03 1.2500000000e+02 0.0000e+00 0.0000e+00
      -15  1    3    3    0    0 +2.7360939595e+01 -1.5397652093e+01 +3.0752645475e+02 3.0913004838e+02 1.7770000000e+00 0.0000e+00 -1.0000e+00
       15  1    3    3    0    0 -5.0155795378e+01 +3.3214408523e+01 +4.0122194822e+02 4.0571050049e+02 1.7770000000e+00 0.0000e+00 -1.0000e+00
       22  1    3    3    0    0 +2.2794855783e+01 -1.7816756430e+01 +3.6902272740e+02 3.7015512369e+02 0.0000000000e+00 0.0000e+00 -1.0000e+00
<mgrwt>
<rscale>  2 0.12500000E+03</rscale>
<asrwt>0</asrwt>
<pdfrwt beam="1">  1       21 0.15902675E+00 0.12500000E+03</pdfrwt>
<pdfrwt beam="2">  1       21 0.53121709E-03 0.12500000E+03</pdfrwt>
<totfact> 0.18796956E+06</totfact>
</mgrwt>
</event>
<event>
 6      0 +1.3698540e+00 1.25000000e+02 7.54677100e-03 1.12640300e-01
       21 -1    0    0  502  501 +0.0000000000e+00 +0.0000000000e+00 +1.1790528131e+01 1.1790528131e+01 0.0000000000e+00 0.0000e+00 -1.0000e+00
       21 -1    0    0  501  502 -0.0000000000e+00 -0.0000000000e+00 -3.3130407362e+02 3.3130407362e+02 0.0000000000e+00 0.0000e+00 -1.0000e+00
       25  2    1    2    0    0 +0.0000000000e+00 +0.0000000000e+00 -3.1951354549e+02 3.4309460175e+02 1.2500000000e+02 0.0000e+00 0.0000e+00
      -15  1    3    3    0    0 -3.0285207029e+01 -2.3050222622e+01 -2.9359914623e+02 2.9606101216e+02 1.7770000000e+00 0.0000e+00 -1.0000e+00
       15  1    3    3    0    0 +3.0593561579e+01 +2.3542891586e+01 -2.5310154200e+01 4.6195187941e+01 1.7770000000e+00 0.0000e+00 -1.0000e+00
       22  1    3    3    0    0 -3.0835454986e-01 -4.9266896397e-01 -6.0424508130e-01 8.3840166672e-01 0.0000000000e+00 0.0000e+00 1.0000e+00
<mgrwt>
<rscale>  2 0.12500000E+03</rscale>
<asrwt>0</asrwt>
<pdfrwt beam="1">  1       21 0.17339012E-02 0.12500000E+03</pdfrwt>
<pdfrwt beam="2">  1       21 0.48721186E-01 0.12500000E+03</pdfrwt>
<totfact> 0.59241654E+06</totfact>
</mgrwt>
</event>
<event>
 6      0 +1.3698540e+00 1.25000000e+02 7.54677100e-03 1.12640300e-01
       21 -1    0    0  502  501 +0.0000000000e+00 +0.0000000000e+00 +1.7590410314e+02 1.7590410314e+02 0.0000000000e+00 0.0000e+00 1.0000e+00
       21 -1    0    0  501  502 -0.0000000000e+00 -0.0000000000e+00 -2.2206702006e+01 2.2206702006e+01 0.0000000000e+00 0.0000e+00 1.0000e+00
       25  2    1    2    0    0 +0.0000000000e+00 +0.0000000000e+00 +1.5369740113e+02 1.9811080514e+02 1.2500000000e+02 0.0000e+00 0.0000e+00
      -15  1    3    3    0    0 +3.4191719244e+00 -3.9152624380e+01 +1.4148917318e+01 4.1808711087e+01 1.7770000000e+00 0.0000e+00 -1.0000e+00
       15  1    3    3    0    0 +6.5324973191e+00 +1.8405042258e+01 +5.6042854394e+00 2.0395706558e+01 1.7770000000e+00 0.0000e+00 -1.0000e+00
       22  1    3    3    0    0 -9.9516692435e+00 +2.0747582122e+01 +1.3394419838e+02 1.3590638750e+02 0.0000000000e+00 0.0000e+00 -1.0000e+00
<mgrwt>
<rscale>  2 0.12500000E+03</rscale>
<asrwt>0</asrwt>
<pdfrwt beam="1">  1       21 0.25868250E-01 0.12500000E+03</pdfrwt>
<pdfrwt beam="2">  1       21 0.32656916E-02 0.12500000E+03</pdfrwt>
<totfact> 0.77095486E+06</totfact>
</mgrwt>
</event>
<event>
 6      0 +1.3698540e+00 1.25000000e+02 7.54677100e-03 1.12640300e-01
       21 -1    0    0  502  501 +0.0000000000e+00 +0.0000000000e+00 +7.4016432652e+00 7.4016432652e+00 0.0000000000e+00 0.0000e+00 1.0000e+00
       21 -1    0    0  501  502 -0.0000000000e+00 -0.0000000000e+00 -5.2775442697e+02 5.2775442697e+02 0.0000000000e+00 0.0000e+00 1.0000e+00
       25  2    1    2    0    0 +0.0000000000e+00 +0.0000000000e+00 -5.2035278370e+02 5.3515607023e+02 1.2500000000e+02 0.0000e+00 0.0000e+00
      -15  1    3    3    0    0 +5.5929521836e+01 +1.3982421855e+01 -1.9699090007e+02 2.0526127733e+02 1.7770000000e+00 0.0000e+00 1.0000e+00
       15  1    3    3    0    0 -5.9576141736e+01 -1.4678031815e+01 -3.1042593333e+02 3.1643669050e+02 1.7770000000e+00 0.0000e+00 1.0000e+00
       22  1    3    3    0    0 +3.6466198996e+00 +6.9560995930e-01 -1.2935950310e+01 1.3458102405e+01 0.0000000000e+00 0.0000e+00 -1.0000e+00
<mgrwt>
<rscale>  2 0.12500000E+03</rscale>
<asrwt>0</asrwt>
<pdfrwt beam="1">  1       21 0.10884769E-02 0.12500000E+03</pdfrwt>
<pdfrwt beam="2">  1       21 0.77610948E-01 0.12500000E+03</pdfrwt>
<totfact> 0.42808292E+06</totfact>
</mgrwt>
</event>
<event>
 6      0 +1.3698540e+00 1.25000000e+02 7.54677100e-03 1.12640300e-01
       21 -1    0    0  502  501 +0.0000000000e+00 +0.0000000000e+00 +6.9654410286e+01 6.9654410286e+01 0.0000000000e+00 0.0000e+00 1.0000e+00
       21 -1    0    0  501  502 -0.0000000000e+00 -0.0000000000e+00 -5.6080440334e+01 5.6080440334e+01 0.0000000000e+00 0.0000e+00 1.0000e+00
       25  2    1    2    0    0 +0.0000000000e+00 +0.0000000000e+00 +1.3573969952e+01 1.2573485062e+02 1.2500000000e+02 0.0000e+00 0.0000e+00
      -15  1    3    3    0    0 +5.6572849940e+00 -3.1542398766e+01 +3.4742790805e+01 4.7298488722e+01 1.7770000000e+00 0.0000e+00 -1.0000e+00
       15  1    3    3    0    0 -3.5915280894e+01 +2.2798128972e+01 -4.5361256134e+00 4.2818176641e+01 1.7770000000e+00 0.0000e+00 -1.0000e+00
       22  1    3    3    0    0 +3.0257995900e+01 +8.7442697944e+00 -1.6632695239e+01 3.5618185257e+01 0.0000000000e+00 0.0000e+00 -1.0000e+00
<mgrwt>
<rscale>  2 0.12500000E+03</rscale>
<asrwt>0</asrwt>
<pdfrwt beam="1">  1       21 0.10243296E-01 0.12500000E+03</pdfrwt>
<pdfrwt beam="2">  1       21 0.82471235E-02 0.12500000E+03</pdfrwt>
<totfact> 0.88860016E+06</totfact>
</mgrwt>
</event>
<event>
 6      0 +1.3698540e+00 1.25000000e+02 7.54677100e-03 1.12640300e-01
       21 -1    0    0  502  501 +0.0000000000e+00 +0.0000000000e+00 +3.1723194526e+02 3.1723194526e+02 0.0000000000e+00 0.0000e+00 -1.0000e+00
       21 -1    0    0  501  502 -0.0000000000e+00 -0.0000000000e+00 -1.2313545525e+01 1.2313545525e+01 0.0000000000e+00 0.0000e+00 -1.0000e+00
       25  2    1    2    0    0 +0.0000000000e+00 +0.0000000000e+00 +3.0491839974e+02 3.2954549079e+02 1.2500000000e+02 0.0000e+00 0.0000e+00
      -15  1    3    3    0    0 +1.6165441011e+01 +3.6048124835e+01 +5.3570029872e+01 6.6585994148e+01 1.7770000000e+00 0.0000e+00 -1.0000e+00
       15  1    3    3    0    0 -1.0235371800e+01 +1.9130380486e+01 +7.2866723184e+01 7.6049006371e+01 1.7770000000e+00 0.0000e+00 -1.0000e+00
       22  1    3    3    0    0 -5.9300692115e+00 -5.5178505321e+01 +1.7848164668e+02 1.8691049027e+02 0.0000000000e+00 0.0000e+00 -1.0000e+00
<mgrwt>
<rscale>  2 0.12500000E+03</rscale>
<asrwt>0</asrwt>
<pdfrwt beam="1">  1       21 0.46651752E-01 0.12500000E+03</pdfrwt>
<pdfrwt beam="2">  1       21 0.18108157E-02 0.12500000E+03</pdfrwt>
<totfact> 0.60671951E+06</totfact>
</mgrwt>
</event>
<event>
 6      0 +1.3698540e+00 1.25000000e+02 7.54677100e-03 1.12640300e-01
       21 -1    0    0  502  501 +0.0000000000e+00 +0.0000000000e+00 +3.8288718099e+01 3.8288718099e+01 0.0000000000e+00 0.0000e+00 1.0000e+00
       21 -1    0    0  501  502 -0.0000000000e+00 -0.0000000000e+00 -1.0202091357e+02 1.0202091357e+02 0.0000000000e+00 0.0000e+00 1.0000e+00
       25  2    1    2    0    0 +0.0000000000e+00 +0.0000000000e+00 -6.3732195474e+01 1.4030963167e+02 1.2500000000e+02 0.0000e+00 0.0000e+00
      -15  1    3    3    0    0 -2.0793246588e+01 +3.9139899505e+01 +1.5294747049e+01 4.6918843263e+01 1.7770000000e+00 0.0000e+00 -1.0000e+00
       15  1    3    3    0    0 +1.5792629942e+01 -4.1308495514e+01 -6.8925857370e+01 8.1912944675e+01 1.7770000000e+00 0.0000e+00 -1.0000e+00
       22  1    3    3    0    0 +5.0006166453e+00 +2.1685960088e+00 -1.0101085153e+01 1.1477843733e+01 0.0000000000e+00 0.0000e+00 -1.0000e+00
<mgrwt>
<rscale>  2 0.12500000E+03</rscale>
<asrwt>0</asrwt>
<pdfrwt beam="1">  1       21 0.56306939E-02 0.12500000E+03</pdfrwt>
<pdfrwt beam="2">  1       21 0.15003075E-01 0.12500000E+03</pdfrwt>
<totfact> 0.86286760E+06</totfact>
</mgrwt>
</event>
<event>
 6      0 +1.3698540e+00 1.25000000e+02 7.54677100e-03 1.12640300e-01
       21 -1    0    0  502  501 +0.0000000000e+00 +0.0000000000e+00 +5.6001499336e+02 5.6001499336e+02 0.0000000000e+00 0.0000e+00 1.0000e+00
       21 -1    0    0  501  502 -0.0000000000e+00 -0.0000000000e+00 -6.9752596740e+00 6.9752596740e+00 0.0000000000e+00 0.0000e+00 1.0000e+00
       25  2    1    2    0    0 +0.0000000000e+00 +0.0000000000e+00 +5.5303973368e+02 5.6699025303e+02 1.2500000000e+02 0.0000e+00 0.0000e+00
      -15  1    3    3    0    0 -4.6469514417e+00 -6.0833807723e+01 +2.1553811884e+02 2.2401380476e+02 1.7770000000e+00 0.0000e+00 1.0000e+00
       15  1    3    3    0    0 +4.6469512591e+00 +6.0833806369e+01 +3.3750160728e+02 3.4297644059e+02 1.7770000000e+00 0.0000e+00 1.0000e+00
       22  1    3    3    0    0 +1.8262294643e-07 +1.3539234997e-06 +7.5210203796e-06 7.6440962536e-06 0.0000000000e+00 0.0000e+00 -1.0000e+00
<mgrwt>
<rscale>  2 0.12500000E+03</rscale>
<asrwt>0</asrwt>
<pdfrwt beam="1">  1       21 0.82355115E-01 0.12500000E+03</pdfrwt>
<pdfrwt beam="2">  1       21 0.10257739E-02 0.12500000E+03</pdfrwt>
<totfact> 0.40662483E+06</totfact>
</mgrwt>
</event>
<event>
 6      0 +1.3698540e+00 1.25000000e+02 7.54677100e-03 1.12640300e-01
       21 -1    0    0  502  501 +0.0000000000e+00 +0.0000000000e+00 +3.8474067990e+01 3.8474067990e+01 0.0000000000e+00 0.0000e+00 -1.0000e+00
       21 -1    0    0  501  502 -0.0000000000e+00 -0.0000000000e+00 -1.0152942499e+02 1.0152942499e+02 0.0000000000e+00 0.0000e+00 -1.0000e+00
       25  2    1    2    0    0 +0.0000000000e+00 +0.0000000000e+00 -6.3055356998e+01 1.4000349298e+02 1.2500000000e+02 0.0000e+00 0.0000e+00
      -15  1    3    3    0    0 -4.0313107171e+00 +1.8165985452e+01 -4.5663767021e+01 4.9341583285e+01 1.7770000000e+00 0.0000e+00 -1.0000e+00
       15  1    3    3    0    0 +1.0451965559e+01 +3.2415586998e+01 -2.0126598687e+01 3.9601156147e+01 1.7770000000e+00 0.0000e+00 -1.0000e+00
       22  1    3    3    0    0 -6.4206548417e+00 -5.0581572449e+01 +2.7350087108e+00 5.1060753547e+01 0.0000000000e+00 0.0000e+00 -1.0000e+00
<mgrwt>
<rscale>  2 0.12500000E+03</rscale>
<asrwt>0</asrwt>
<pdfrwt beam="1">  1       21 0.56579512E-02 0.12500000E+03</pdfrwt>
<pdfrwt beam="2">  1       21 0.14930798E-01 0.12500000E+03</pdfrwt>
<totfact> 0.86339706E+06</totfact>
</mgrwt>
</event>
<event>
 6      0 +1.3698540e+00 1.25000000e+02 7.54677100e-03 1.12640300e-01
       21 -1    0    0  502  501 +0.0000000000e+00 +0.0000000000e+00 +8.9853683296e+01 8.9853683296e+01 0.0000000000e+00 0.0000e+00 1.0000e+00
       21 -1    0    0  501  502 -0.0000000000e+00 -0.0000000000e+00 -4.3473454362e+01 4.3473454362e+01 0.0000000000e+00 0.0000e+00 1.0000e+00
       25  2    1    2    0    0 +0.0000000000e+00 +0.0000000000e+00 +4.6380228935e+01 1.3332713766e+02 1.2500000000e+02 0.0000e+00 0.0000e+00
      -15  1    3    3    0    0 -3.8475671331e-01 +4.8711473630e+01 +1.5279080819e+01 5.1083889246e+01 1.7770000000e+00 0.0000e+00 -1.0000e+00
       15  1    3    3    0    0 +7.7939900697e+00 -1.2915615920e+01 +4.1537841670e+01 4.4227925968e+01 1.7770000000e+00 0.0000e+00 -1.0000e+00
       22  1    3    3    0    0 -7.4092333564e+00 -3.5795857710e+01 -1.0436693554e+01 3.8015322443e+01 0.0000000000e+00 0.0000e+00 -1.0000e+00
<mgrwt>
<rscale>  2 0.12500000E+03</rscale>
<asrwt>0</asrwt>
<pdfrwt beam="1">  1       21 0.13213777E-01 0.12500000E+03</pdfrwt>
<pdfrwt beam="2">  1       21 0.63931550E-02 0.12500000E+03</pdfrwt>
<totfact> 0.87500108E+06</totfact>
</mgrwt>
</event>
<event>
 6      0 +1.3698540e+00 1.25000000e+02 7.54677100e-03 1.12640300e-01
       21 -1    0    0  502  501 +0.0000000000e+00 +0.0000000000e+00 +1.5163851878e+01 1.5163851878e+01 0.0000000000e+00 0.0000e+00 1.0000e+00
       21 -1    0    0  501  502 -0.0000000000e+00 -0.0000000000e+00 -2.5760275367e+02 2.5760275367e+02 0.0000000000e+00 0.0000e+00 1.0000e+00
       25  2    1    2    0    0 +0.0000000000e+00 +0.0000000000e+00 -2.4243890179e+02 2.7276660555e+02 1.2500000000e+02 0.0000e+00 0.0000e+00
      -15  1    3    3    0    0 +4.6411695997e+01 +2.1336237517e+01 -4.2729018027e+01 6.6619871415e+01 1.7770000000e+00 0.0000e+00 -1.0000e+00
       15  1    3    3    0    0 -4.6411696091e+01 -2.1336237588e+01 -1.9970988365e+02 2.0614673396e+02 1.7770000000e+00 0.0000e+00 -1.0000e+00
       22  1    3    3    0    0 +9.4277266262e-08 +7.1049455863e-08 -1.0244739159e-07 1.5630641751e-07 0.0000000000e+00 0.0000e+00 1.0000e+00
<mgrwt>
<rscale>  2 0.12500000E+03</rscale>
<asrwt>0</asrwt>
<pdfrwt beam="1">  1       21 0.22299783E-02 0.12500000E+03</pdfrwt>
<pdfrwt beam="2">  1       21 0.37882756E-01 0.12500000E+03</pdfrwt>
<totfact> 0.67161585E+06</totfact>
</mgrwt>
</event>
<event>
 6      0 +1.3698540e+00 1.25000000e+02 7.54677100e-03 1.12640300e-01
       21 -1    0    0  502  501 +0.0000000000e+00 +0.0000000000e+00 +4.9799092199e+01 4.9799092199e+01 0.0000000000e+00 0.0000e+00 -1.0000e+00
       21 -1    0    0  501  502 -0.0000000000e+00 -0.0000000000e+00 -7.8440184901e+01 7.8440184901e+01 0.0000000000e+00 0.0000e+00 -1.0000e+00
       25  2    1    2    0    0 +0.0000000000e+00 +0.0000000000e+00 -2.8641092702e+01 1.2823927710e+02 1.2500000000e+02 0.0000e+00 0.0000e+00
      -15  1    3    3    0    0 -2.2612928102e+01 -1.7430340024e+00 -6.0080482589e+00 2.3529493359e+01 1.7770000000e+00 0.0000e+00 -1.0000e+00
       15  1    3    3    0    0 -1.2648658387e+01 -1.0900954308e+00 +3.4895156181e+01 3.7175348294e+01 1.7770000000e+00 0.0000e+00 -1.0000e+00
       22  1    3    3    0    0 +3.5261586488e+01 +2.8331294332e+00 -5.7528200623e+01 6.7534435446e+01 0.0000000000e+00 0.0000e+00 -1.0000e+00
<mgrwt>
<rscale>  2 0.12500000E+03</rscale>
<asrwt>0</asrwt>
<pdfrwt beam="1">  1       21 0.73233960E-02 0.12500000E+03</pdfrwt>
<pdfrwt beam="2">  1       21 0.11535321E-01 0.12500000E+03</pdfrwt>
<totfact> 0.88415349E+06</totfact>
</mgrwt>
</event>
<event>
 6      0 +1.3698540e+00 1.25000000e+02 7.54677100e-03 1.12640300e-01
       21 -1    0    0  502  501 +0.0000000000e+00 +0.0000000000e+00 +1.9436595825e+02 1.9436595825e+02 0.0000000000e+00 0.0000e+00 -1.0000e+00
       21 -1    0    0  501  502 -0.0000000000e+00 -0.0000000000e+00 -2.0097397894e+01 2.0097397894e+01 0.0000000000e+00 0.0000e+00 -1.0000e+00
       25  2    1    2    0    0 +0.0000000000e+00 +0.0000000000e+00 +1.7426856035e+02 2.1446335614e+02 1.2500000000e+02 0.0000e+00 0.0000e+00
      -15  1    3    3    0    0 -1.2143368468e+01 -3.3392846687e+01 -6.4202947042e-01 3.5582489213e+01 1.7770000000e+00 0.0000e+00 1.0000e+00
       15  1    3    3    0    0 +1.2301713731e+01 +3.3689546852e+01 +1.7489587940e+02 1.7854423566e+02 1.7770000000e+00 0.0000e+00 1.0000e+00
       22  1    3    3    0    0 -1.5834526244e-01 -2.9670016513e-01 +1.4710416603e-02 3.3663126187e-01 0.0000000000e+00 0.0000e+00 1.0000e+00
<mgrwt>
<rscale>  2 0.12500000E+03</rscale>
<asrwt>0</asrwt>
<pdfrwt beam="1">  1       21 0.28583228E-01 0.12500000E+03</pdfrwt>
<pdfrwt beam="2">  1       21 0.29554998E-02 0.12500000E+03</pdfrwt>
<totfact> 0.74758536E+06</totfact>
</mgrwt>
</event>
<event>
 6      0 +1.3698540e+00 1.25000000e+02 7.54677100e-03 1.12640300e-01
       21 -1    0    0  502  501 +0.0000000000e+00 +0.0000000000e+00 +1.5328559405e+01 1.5328559405e+01 0.0000000000e+00 0.0000e+00 -1.0000e+00
       21 -1    0    0  501  502 -0.0000000000e+00 -0.0000000000e+00 -2.5483477584e+02 2.5483477584e+02 0.0000000000e+00 0.0000e+00 -1.0000e+00
       25  2    1    2    0    0 +0.0000000000e+00 +0.0000000000e+00 -2.3950621643e+02 2.7016333524e+02 1.2500000000e+02 0.0000e+00 0.0000e+00
      -15  1    3    3    0    0 -5.8111273953e+01 +2.0187813405e+01 -1.4278787157e+02 1.5548634013e+02 1.7770000000e+00 0.0000e+00 1.0000e+00
       15  1    3    3    0    0 +5.8147549601e+01 -2.0188670541e+01 -9.6668492978e+01 1.1461533583e+02 1.7770000000e+00 0.0000e+00 1.0000e+00
       22  1    3    3    0    0 -3.6275647822e-02 +8.5713511030e-04 -4.9851884107e-02 6.1659286847e-02 0.0000000000e+00 0.0000e+00 1.0000e+00
<mgrwt>
<rscale>  2 0.12500000E+03</rscale>
<asrwt>0</asrwt>
<pdfrwt beam="1">  1       21 0.22541999E-02 0.12500000E+03</pdfrwt>
<pdfrwt beam="2">  1       21 0.37475702E-01 0.12500000E+03</pdfrwt>
<totfact> 0.67478382E+06</totfact>
</mgrwt>
</event>
<event>
 6      0 +1.3698540e+00 1.25000000e+02 7.54677100e-03 1.12640300e-01
       21 -1    0    0  502  501 +0.0000000000e+00 +0.0000000000e+00 +4.4536173483e+00 4.4536173483e+00 0.0000000000e+00 0.0000e+00 -1.0000e+00
       21 -1    0    0  501  502 -0.0000000000e+00 -0.0000000000e+00 -8.7709600859e+02 8.7709600859e+02 0.0000000000e+00 0.0000e+00 -1.0000e+00
       25  2    1    2    0    0 +0.0000000000e+00 +0.0000000000e+00 -8.7264239124e+02 8.8154962594e+02 1.2500000000e+02 0.0000e+00 0.0000e+00
      -15  1    3    3    0    0 +5.1971739483e+01 +4.0779877301e+00 -6.7862631046e+02 6.8062803253e+02 1.7770000000e+00 0.0000e+00 -1.0000e+00
       15  1    3    3    0    0 -5.0121533338e+01 -4.3649856541e+00 -1.8637235671e+02 1.9305189530e+02 1.7770000000e+00 0.0000e+00 -1.0000e+00
       22  1    3    3    0    0 -1.8502061452e+00 +2.8699792406e-01 -7.6437239054e+00 7.8696979441e+00 0.0000000000e+00 0.0000e+00 1.0000e+00
<mgrwt>
<rscale>  2 0.12500000E+03</rscale>
<asrwt>0</asrwt>
<pdfrwt beam="1">  1       21 0.65494451E-03 0.12500000E+03</pdfrwt>
<pdfrwt beam="2">  1       21 0.12898455E+00 0.12500000E+03</pdfrwt>
<totfact> 0.25090419E+06</totfact>
</mgrwt>
</event>
<event>
 6      0 +1.3698540e+00 1.25000000e+02 7.54677100e-03 1.12640300e-01
       21 -1    0    0  502  501 +0.0000000000e+00 +0.0000000000e+00 +2.6675224944e+02 2.6675224944e+02 0.0000000000e+00 0.0000e+00 -1.0000e+00
       21 -1    0    0  501  502 -0.0000000000e+00 -0.0000000000e+00 -1.4643737806e+01 1.4643737806e+01 0.0000000000e+00 0.0000e+00 -1.0000e+00
       25  2    1    2    0    0 +0.0000000000e+00 +0.0000000000e+00 +2.5210851163e+02 2.8139598724e+02 1.2500000000e+02 0.0000e+00 0.0000e+00
      -15  1    3    3    0    0 +1.4144167750e+01 +1.9668606317e+01 +3.3371799376e+01 4.1276461554e+01 1.7770000000e+00 0.0000e+00 -1.0000e+00
       15  1    3    3    0    0 -9.3660491048e+00 -4.9253810918e+01 +1.9649765870e+02 2.0280076028e+02 1.7770000000e+00 0.0000e+00 -1.0000e+00
       22  1    3    3    0    0 -4.7781186451e+00 +2.9585204601e+01 +2.2239053565e+01 3.7318765420e+01 0.0000000000e+00 0.0000e+00 -1.0000e+00
<mgrwt>
<rscale>  2 0.12500000E+03</rscale>
<asrwt>0</asrwt>
<pdfrwt beam="1">  1       21 0.39228269E-01 0.12500000E+03</pdfrwt>
<pdfrwt beam="2">  1       21 0.21534910E-02 0.12500000E+03</pdfrwt>
<totfact> 0.66125067E+06</totfact>
</mgrwt>
</event>
<event>
 6      0 +1.3698540e+00 1.25000000e+02 7.54677100e-03 1.12640300e-01
       21 -1    0    0  502  501 +0.0000000000e+00 +0.0000000000e+00 +1.9326610536e+01 1.9326610536e+01 0.0000000000e+00 0.0000e+00 1.0000e+00
       21 -1    0    0  501  502 -0.0000000000e+00 -0.0000000000e+00 -2.0211769636e+02 2.0211769636e+02 0.0000000000e+00 0.0000e+00 1.0000e+00
       25  2    1    2    0    0 +0.0000000000e+00 +0.0000000000e+00 -1.8279108583e+02 2.2144430690e+02 1.2500000000e+02 0.0000e+00 0.0000e+00
      -15  1    3    3    0    0 -5.1868859800e+01 +2.7991898770e+01 -5.4695397798e+01 8.0428037916e+01 1.7770000000e+00 0.0000e+00 1.0000e+00
       15  1    3    3    0    0 +5.1868860077e+01 -2.7991898886e+01 -1.2809568781e+02 1.4101626861e+02 1.7770000000e+00 0.0000e+00 1.0000e+00
       22  1    3    3    0    0 -2.7667221688e-07 +1.1587487010e-07 -2.2424489294e-07 3.7451338176e-07 0.0000000000e+00 0.0000e+00 1.0000e+00
<mgrwt>
<rscale>  2 0.12500000E+03</rscale>
<asrwt>0</asrwt>
<pdfrwt beam="1">  1       21 0.28421486E-02 0.12500000E+03</pdfrwt>
<pdfrwt beam="2">  1       21 0.29723190E-01 0.12500000E+03</pdfrwt>
<totfact> 0.73795434E+06</totfact>
</mgrwt>
</event>
<event>
 6      0 +1.3698540e+00 1.25000000e+02 7.54677100e-03 1.12640300e-01
       21 -1    0    0  502  501 +0.0000000000e+00 +0.0000000000e+00 +4.9027638817e+02 4.9027638817e+02 0.0000000000e+00 0.0000e+00 -1.0000e+00
       21 -1    0    0  501  502 -0.0000000000e+00 -0.0000000000e+00 -7.9674446787e+00 7.9674446787e+00 0.0000000000e+00 0.0000e+00 -1.0000e+00
       25  2    1    2    0    0 +0.0000000000e+00 +0.0000000000e+00 +4.8230894349e+02 4.9824383284e+02 1.2500000000e+02 0.0000e+00 0.0000e+00
      -15  1    3    3    0    0 -5.4010895421e+00 -5.9347508198e+01 +1.9866288012e+02 2.0741599785e+02 1.7770000000e+00 0.0000e+00 -1.0000e+00
       15  1    3    3    0    0 +4.1218118759e+00 +3.5828518776e+01 +1.1474423154e+02 1.2029159776e+02 1.7770000000e+00 0.0000e+00 -1.0000e+00
       22  1    3    3    0    0 +1.2792776662e+00 +2.3518989423e+01 +1.6890183195e+02 1.7053623735e+02 0.0000000000e+00 0.0000e+00 -1.0000e+00
<mgrwt>
<rscale>  2 0.12500000E+03</rscale>
<asrwt>0</asrwt>
<pdfrwt beam="1">  1       21 0.72099449E-01 0.12500000E+03</pdfrwt>
<pdfrwt beam="2">  1       21 0.11716834E-02 0.12500000E+03</pdfrwt>
<totfact> 0.45456849E+06</totfact>
</mgrwt>
</event>
<event>
 6      0 +1.3698540e+00 1.25000000e+02 7.54677100e-03 1.12640300e-01
       21 -1    0    0  502  501 +0.0000000000e+00 +0.0000000000e+00 +9.2195848344e+01 9.2195848344e+01 0.0000000000e+00 0.0000e+00 1.0000e+00
       21 -1    0    0  501  502 -0.0000000000e+00 -0.0000000000e+00 -4.2369044487e+01 4.2369044487e+01 0.0000000000e+00 0.0000e+00 1.0000e+00
       25  2    1    2    0    0 +0.0000000000e+00 +0.0000000000e+00 +4.9826803857e+01 1.3456489283e+02 1.2500000000e+02 0.0000e+00 0.0000e+00
      -15  1    3    3    0    0 -3.8843174668e+01 -2.7687524108e+01 +2.6836374179e+01 5.4760751616e+01 1.7770000000e+00 0.0000e+00 -1.0000e+00
       15  1    3    3    0    0 +3.7836342835e+01 +1.2912361544e+01 -1.2024713997e+01 4.1785995209e+01 1.7770000000e+00 0.0000e+00 -1.0000e+00
       22  1    3    3    0    0 +1.0068318326e+00 +1.4775162563e+01 +3.5015143676e+01 3.8018146006e+01 0.0000000000e+00 0.0000e+00 -1.0000e+00
<mgrwt>
<rscale>  2 0.12500000E+03</rscale>
<asrwt>0</asrwt>
<pdfrwt beam="1">  1       21 0.13558213E-01 0.12500000E+03</pdfrwt>
<pdfrwt beam="2">  1       21 0.62307418E-02 0.12500000E+03</pdfrwt>
<totfact> 0.87282099E+06</totfact>
</mgrwt>
</event>
<event>
 6      0 +1.3698540e+00 1.25000000e+02 7.54677100e-03 1.12640300e-01
       21 -1    0    0  502  501 +0.0000000000e+00 +0.0000000000e+00 +2.4942968857e+01 2.4942968857e+01 0.0000000000e+00 0.0000e+00 -1.0000e+00
       21 -1    0    0  501  502 -0.0000000000e+00 -0.0000000000e+00 -1.5660725964e+02 1.5660725964e+02 0.0000000000e+00 0.0000e+00 -1.0000e+00
       25  2    1    2    0    0 +0.0000000000e+00 +0.0000000000e+00 -1.3166429078e+02 1.8155022850e+02 1.2500000000e+02 0.0000e+00 0.0000e+00
      -15  1    3    3    0    0 +3.0875001415e+00 +2.4978605597e+01 -1.1684796559e+02 1.1954107321e+02 1.7770000000e+00 0.0000e+00 -1.0000e+00
       15  1    3    3    0    0 -3.3606104547e+00 +1.7387858799e+01 -5.5076229478e+00 1.8631236561e+01 1.7770000000e+00 0.0000e+00 -1.0000e+00
       22  1    3    3    0    0 +2.7311031316e-01 -4.2366464396e+01 -9.3087022384e+00 4.3377918714e+01 0.0000000000e+00 0.0000e+00 -1.0000e+00
<mgrwt>
<rscale>  2 0.12500000E+03</rscale>
<asrwt>0</asrwt>
<pdfrwt beam="1">  1       21 0.36680837E-02 0.12500000E+03</pdfrwt>
<pdfrwt beam="2">  1       21 0.23030479E-01 0.12500000E+03</pdfrwt>
<totfact> 0.79569705E+06</totfact>
</mgrwt>
</event>
<event>
 6      0 +1.3698540e+00 1.25000000e+02 7.54677100e-03 1.12640300e-01
       21 -1    0    0  502  501 +0.0000000000e+00 +0.0000000000e+00 +6.4285286271e+01 6.4285286271e+01 0.0000000000e+00 0.0000e+00 -1.0000e+00
       21 -1    0    0  501  502 -0.0000000000e+00 -0.0000000000e+00 -6.0764293458e+01 6.0764293458e+01 0.0000000000e+00 0.0000e+00 -1.0000e+00
       25  2    1    2    0    0 +0.0000000000e+00 +0.0000000000e+00 +3.5209928137e+00 1.2504957973e+02 1.2500000000e+02 0.0000e+00 0.0000e+00
      -15  1    3    3    0    0 +3.2586647578e+01 +1.7780988719e+01 +7.7009271842e+00 3.7954119259e+01 1.7770000000e+00 0.0000e+00 -1.0000e+00
       15  1    3    3    0    0 -3.1699622749e+00 -7.2515167125e-01 -3.8561488106e+01 3.8739135248e+01 1.7770000000e+00 0.0000e+00 -1.0000e+00
       22  1    3    3    0    0 -2.9416685304e+01 -1.7055837048e+01 +3.4381553736e+01 4.8356325222e+01 0.0000000000e+00 0.0000e+00 -1.0000e+00
<mgrwt>
<rscale>  2 0.12500000E+03</rscale>
<asrwt>0</asrwt>
<pdfrwt beam="1">  1       21 0.94537186E-02 0.12500000E+03</pdfrwt>
<pdfrwt beam="2">  1       21 0.89359255E-02 0.12500000E+03</pdfrwt>
<totfact> 0.88991756E+06</totfact>
</mgrwt>
</event>
<event>
 6      0 +1.3698540e+00 1.25000000e+02 7.54677100e-03 1.12640300e-01
       21 -1    0    0  502  501 +0.0000000000e+00 +0.0000000000e+00 +1.7395249901e+02 1.7395249901e+02 0.0000000000e+00 0.0000e+00 1.0000e+00
       21 -1    0    0  501  502 -0.0000000000e+00 -0.0000000000e+00 -2.2455842959e+01 2.2455842959e+01 0.0000000000e+00 0.0000e+00 1.0000e+00
       25  2    1    2    0    0 +0.0000000000e+00 +0.0000000000e+00 +1.5149665605e+02 1.9640834197e+02 1.2500000000e+02 0.0000e+00 0.0000e+00
      -15  1    3    3    0    0 -1.1681493951e+01 +1.7430896084e+01 -4.3074437532e+00 2.1494307152e+01 1.7770000000e+00 0.0000e+00 -1.0000e+00
       15  1    3    3    0    0 -2.5062847249e+01 +7.1527889584e+00 +2.2525732928e+01 3.4494565878e+01 1.7770000000e+00 0.0000e+00 -1.0000e+00
       22  1    3    3    0    0 +3.6744341199e+01 -2.4583685042e+01 +1.3327836687e+02 1.4041946894e+02 0.0000000000e+00 0.0000e+00 -1.0000e+00
<mgrwt>
<rscale>  2 0.12500000E+03</rscale>
<asrwt>0</asrwt>
<pdfrwt beam="1">  1       21 0.25581249E-01 0.12500000E+03</pdfrwt>
<pdfrwt beam="2">  1       21 0.33023299E-02 0.12500000E+03</pdfrwt>
<totfact> 0.77346368E+06</totfact>
</mgrwt>
</event>
<event>
 6      0 +1.3698540e+00 1.25000000e+02 7.54677100e-03 1.12640300e-01
       21 -1    0    0  502  501 +0.0000000000e+00 +0.0000000000e+00 +8.1690431167e+02 8.1690431167e+02 0.0000000000e+00 0.0000e+00 1.0000e+00
       21 -1    0    0  501  502 -0.0000000000e+00 -0.0000000000e+00 -4.7817717990e+00 4.7817717990e+00 0.0000000000e+00 0.0000e+00 1.0000e+00
       25  2    1    2    0    0 +0.0000000000e+00 +0.0000000000e+00 +8.1212253987e+02 8.2168608346e+02 1.2500000000e+02 0.0000e+00 0.0000e+00
      -15  1    3    3    0    0 -1.0592569652e+01 -2.5240402870e+01 +2.5152558092e+02 2.5301690864e+02 1.7770000000e+00 0.0000e+00 -1.0000e+00
       15  1    3    3    0    0 -1.9405974517e+01 -8.2065123165e+00 +4.3075401739e+02 4.3127267467e+02 1.7770000000e+00 0.0000e+00 -1.0000e+00
       22  1    3    3    0    0 +2.9998544169e+01 +3.3446915187e+01 +1.2984294189e+02 1.3739650048e+02 0.0000000000e+00 0.0000e+00 -1.0000e+00
<mgrwt>
<rscale>  2 0.12500000E+03</rscale>
<asrwt>0</asrwt>
<pdfrwt beam="1">  1       21 0.12013289E+00 0.12500000E+03</pdfrwt>
<pdfrwt beam="2">  1       21 0.70320230E-03 0.12500000E+03</pdfrwt>
<totfact> 0.27391966E+06</totfact>
</mgrwt>
</event>
<event>
 6      0 +1.3698540e+00 1.25000000e+02 7.54677100e-03 1.12640300e-01
       21 -1    0    0  502  501 +0.0000000000e+00 +0.0000000000e+00 +5.5019857364e+01 5.5019857364e+01 0.0000000000e+00 0.0000e+00 1.0000e+00
       21 -1    0    0  501  502 -0.0000000000e+00 -0.0000000000e+00 -7.0997094270e+01 7.0997094270e+01 0.0000000000e+00 0.0000e+00 1.0000e+00
       25  2    1    2    0    0 +0.0000000000e+00 +0.0000000000e+00 -1.5977236905e+01 1.2601695163e+02 1.2500000000e+02 0.0000e+00 0.0000e+00
      -15  1    3    3    0    0 -5.8259131905e+01 +2.6808360119e-01 +3.3201084638e+00 5.8381325511e+01 1.7770000000e+00 0.0000e+00 -1.0000e+00
       15  1    3    3    0    0 +6.0666700260e+01 -1.8523634773e-01 -2.1482967751e+01 6.4382905070e+01 1.7770000000e+00 0.0000e+00 -1.0000e+00
       22  1    3    3    0    0 -2.4075683550e+00 -8.2847253466e-02 +2.1856223813e+00 3.2527210524e+00 0.0000000000e+00 0.0000e+00 1.0000e+00
<mgrwt>
<rscale>  2 0.12500000E+03</rscale>
<asrwt>0</asrwt>
<pdfrwt beam="1">  1       21 0.80911556E-02 0.12500000E+03</pdfrwt>
<pdfrwt beam="2">  1       21 0.10440749E-01 0.12500000E+03</pdfrwt>
<totfact> 0.88808700E+06</totfact>
</mgrwt>
</event>
<event>
 6      0 +1.3698540e+00 1.25000000e+02 7.54677100e-03 1.12640300e-01
       21 -1    0    0  502  501 +0.0000000000e+00 +0.0000000000e+00 +1.3645558954e+02 1.3645558954e+02 0.0000000000e+00 0.0000e+00 1.0000e+00
       21 -1    0    0  501  502 -0.0000000000e+00 -0.0000000000e+00 -2.8626529797e+01 2.8626529797e+01 0.0000000000e+00 0.0000e+00 1.0000e+00
       25  2    1    2    0    0 +0.0000000000e+00 +0.0000000000e+00 +1.0782905974e+02 1.6508211934e+02 1.2500000000e+02 0.0000e+00 0.0000e+00
      -15  1    3    3    0    0 +4.6224622817e+01 -4.1371463839e+01 +6.3689018744e+01 8.8925601557e+01 1.7770000000e+00 0.0000e+00 -1.0000e+00
       15  1    3    3    0    0 -4.6224604119e+01 +4.1371432172e+01 +4.4140028833e+01 7.6156479043e+01 1.7770000000e+00 0.0000e+00 -1.0000e+00
       22  1    3    3    0    0 -1.8698166217e-05 +3.1666544818e-05 +1.2158924908e-05 3.8732814712e-05 0.0000000000e+00 0.0000e+00 -1.0000e+00
<mgrwt>
<rscale>  2 0.12500000E+03</rscale>
<asrwt>0</asrwt>
<pdfrwt beam="1">  1       21 0.20066998E-01 0.12500000E+03</pdfrwt>
<pdfrwt beam="2">  1       21 0.42097839E-02 0.12500000E+03</pdfrwt>
<totfact> 0.82152921E+06</totfact>
</mgrwt>
</event>
<event>
 6      0 +1.3698540e+00 1.25000000e+02 7.54677100e-03 1.12640300e-01
       21 -1    0    0  502  501 +0.0000000000e+00 +0.0000000000e+00 +1.0421525531e+01 1.0421525531e+01 0.0000000000e+00 0.0000e+00 -1.0000e+00
       21 -1    0    0  501  502 -0.0000000000e+00 -0.0000000000e+00 -3.7482516245e+02 3.7482516245e+02 0.0000000000e+00 0.0000e+00 -1.0000e+00
       25  2    1    2    0    0 +0.0000000000e+00 +0.0000000000e+00 -3.6440363692e+02 3.8524668798e+02 1.2500000000e+02 0.0000e+00 0.0000e+00
      -15  1    3    3    0    0 +3.0778186703e+01 +7.1169560908e+00 -3.4831831408e+02 3.4975241742e+02 1.7770000000e+00 0.0000e+00 1.0000e+00
       15  1    3    3    0    0 -3.0778186746e+01 -7.1169561714e+00 -1.6085321351e+01 3.5494269066e+01 1.7770000000e+00 0.0000e+00 1.0000e+00
       22  1    3    3    0    0 +4.3541235540e-08 +8.0634761424e-08 -1.5045566616e-06 1.5073448683e-06 0.0000000000e+00 0.0000e+00 -1.0000e+00
<mgrwt>
<rscale>  2 0.12500000E+03</rscale>
<asrwt>0</asrwt>
<pdfrwt beam="1">  1       21 0.15325771E-02 0.12500000E+03</pdfrwt>
<pdfrwt beam="2">  1       21 0.55121353E-01 0.12500000E+03</pdfrwt>
<totfact> 0.55041030E+06</totfact>
</mgrwt>
</event>
<event>
 6      0 +1.3698540e+00 1.25000000e+02 7.54677100e-03 1.12640300e-01
       21 -1    0    0  502  501 +0.0000000000e+00 +0.0000000000e+00 +2.3624629758e+01 2.3624629758e+01 0.0000000000e+00 0.0000e+00 -1.0000e+00
       21 -1    0    0  501  502 -0.0000000000e+00 -0.0000000000e+00 -1.6534650659e+02 1.6534650659e+02 0.0000000000e+00 0.0000e+00 -1.0000e+00
       25  2    1    2    0    0 +0.0000000000e+00 +0.0000000000e+00 -1.4172187684e+02 1.8897113635e+02 1.2500000000e+02 0.0000e+00 0.0000e+00
      -15  1    3    3    0    0 -2.2913626627e+01 -8.9820186961e+00 -6.6639235450e+01 7.1060934243e+01 1.7770000000e+00 0.0000e+00 -1.0000e+00
       15  1    3    3    0    0 -3.2340257146e+01 -1.1994296181e+00 -4.0745465150e+01 5.2064205775e+01 1.7770000000e+00 0.0000e+00 -1.0000e+00
       22  1    3    3    0    0 +5.5253883772e+01 +1.0181448314e+01 -3.4337176247e+01 6.5845996343e+01 0.0000000000e+00 0.0000e+00 -1.0000e+00
<mgrwt>
<rscale>  2 0.12500000E+03</rscale>
<asrwt>0</asrwt>
<pdfrwt beam="1">  1       21 0.34742102E-02 0.12500000E+03</pdfrwt>
<pdfrwt beam="2">  1       21 0.24315663E-01 0.12500000E+03</pdfrwt>
<totfact> 0.78451272E+06</totfact>
</mgrwt>
</event>
<event>
 6      0 +1.3698540e+00 1.25000000e+02 7.54677100e-03 1.12640300e-01
       21 -1    0    0  502  501 +0.0000000000e+00 +0.0000000000e+00 +6.5807658123e+01 6.5807658123e+01 0.0000000000e+00 0.0000e+00 1.0000e+00
       21 -1    0    0  501  502 -0.0000000000e+00 -0.0000000000e+00 -5.9358593079e+01 5.9358593079e+01 0.0000000000e+00 0.0000e+00 1.0000e+00
       25  2    1    2    0    0 +0.0000000000e+00 +0.0000000000e+00 +6.4490650437e+00 1.2516625120e+02 1.2500000000e+02 0.0000e+00 0.0000e+00
      -15  1    3    3    0    0 -1.4458783076e+01 -1.3859249133e+01 +2.2151846035e+01 2.9916503911e+01 1.7770000000e+00 0.0000e+00 -1.0000e+00
       15  1    3    3    0    0 +1.1244236481e+01 +8.3304470707e+00 +3.8328183583e+01 4.0841603645e+01 1.7770000000e+00 0.0000e+00 -1.0000e+00
       22  1    3    3    0    0 +3.2145465947e+00 +5.5288020625e+00 -5.4030964574e+01 5.4408143645e+01 0.0000000000e+00 0.0000e+00 -1.0000e+00
<mgrwt>
<rscale>  2 0.12500000E+03</rscale>
<asrwt>0</asrwt>
<pdfrwt beam="1">  1       21 0.96775968E-02 0.12500000E+03</pdfrwt>
<pdfrwt beam="2">  1       21 0.87292049E-02 0.12500000E+03</pdfrwt>
<totfact> 0.88967515E+06</totfact>
</mgrwt>
</event>
<event>
 6      0 +1.3698540e+00 1.25000000e+02 7.54677100e-03 1.12640300e-01
       21 -1    0    0  502  501 +0.0000000000e+00 +0.0000000000e+00 +1.3214186237e+02 1.3214186237e+02 0.0000000000e+00 0.0000e+00 1.0000e+00
       21 -1    0    0  501  502 -0.0000000000e+00 -0.0000000000e+00 -2.9561033347e+01 2.9561033347e+01 0.0000000000e+00 0.0000e+00 1.0000e+00
       25  2    1    2    0    0 +0.0000000000e+00 +0.0000000000e+00 +1.0258082902e+02 1.6170289571e+02 1.2500000000e+02 0.0000e+00 0.0000e+00
      -15  1    3    3    0    0 -3.4624237434e+01 -2.3994033903e+01 -8.1820488926e+00 4.2949448585e+01 1.7770000000e+00 0.0000e+00 -1.0000e+00
       15  1    3    3    0    0 +3.4746478444e+01 +2.4096458282e+01 +1.1078395827e+02 1.1859258073e+02 1.7770000000e+00 0.0000e+00 -1.0000e+00
       22  1    3    3    0    0 -1.2224101035e-01 -1.0242437955e-01 -2.1080349168e-02 1.6086640190e-01 0.0000000000e+00 0.0000e+00 -1.0000e+00
<mgrwt>
<rscale>  2 0.12500000E+03</rscale>
<asrwt>0</asrwt>
<pdfrwt beam="1">  1       21 0.19432627E-01 0.12500000E+03</pdfrwt>
<pdfrwt beam="2">  1       21 0.43472108E-02 0.12500000E+03</pdfrwt>
<totfact> 0.82701593E+06</totfact>
</mgrwt>
</event>
<event>
 6      0 +1.3698540e+00 1.25000000e+02 7.54677100e-03 1.12640300e-01
       21 -1    0    0  502  501 +0.0000000000e+00 +0.0000000000e+00 +4.2641347833e+01 4.2641347833e+01 0.0000000000e+00 0.0000e+00 -1.0000e+00
       21 -1    0    0  501  502 -0.0000000000e+00 -0.0000000000e+00 -9.1607094957e+01 9.1607094957e+01 0.0000000000e+00 0.0000e+00 -1.0000e+00
       25  2    1    2    0    0 +0.0000000000e+00 +0.0000000000e+00 -4.8965747124e+01 1.3424844279e+02 1.2500000000e+02 0.0000e+00 0.0000e+00
      -15  1    3    3    0    0 -1.4104248864e-01 -2.7863493509e+01 +3.5570766710e+01 4.5219811331e+01 1.7770000000e+00 0.0000e+00 1.0000e+00
       15  1    3    3    0    0 +1.3997781881e-01 +2.7864026418e+01 -8.4535205092e+01 8.9026862187e+01 1.7770000000e+00 0.0000e+00 1.0000e+00
       22  1    3    3    0    0 +1.0646698317e-03 -5.3290966463e-04 -1.3087421202e-03 1.7692711772e-03 0.0000000000e+00 0.0000e+00 -1.0000e+00
<mgrwt>
<rscale>  2 0.12500000E+03</rscale>
<asrwt>0</asrwt>
<pdfrwt beam="1">  1       21 0.62707865E-02 0.12500000E+03</pdfrwt>
<pdfrwt beam="2">  1       21 0.13471631E-01 0.12500000E+03</pdfrwt>
<totfact> 0.87337657E+06</totfact>
</mgrwt>
</event>
<event>
 6      0 +1.3698540e+00 1.25000000e+02 7.54677100e-03 1.12640300e-01
       21 -1    0    0  502  501 +0.0000000000e+00 +0.0000000000e+00 +5.1577375739e+02 5.1577375739e+02 0.0000000000e+00 0.0000e+00 1.0000e+00
       21 -1    0    0  501  502 -0.0000000000e+00 -0.0000000000e+00 -7.5735726063e+00 7.5735726063e+00 0.0000000000e+00 0.0000e+00 1.0000e+00
       25  2    1    2    0    0 +0.0000000000e+00 +0.0000000000e+00 +5.0820018478e+02 5.2334733000e+02 1.2500000000e+02 0.0000e+00 0.0000e+00
      -15  1    3    3    0    0 +9.7018234688e-01 -1.6331422064e+01 +5.7619101621e+01 5.9923077366e+01 1.7770000000e+00 0.0000e+00 -1.0000e+00
       15  1    3    3    0    0 +2.7465610825e+01 +4.9639322081e+01 +1.6464803626e+02 1.7415669854e+02 1.7770000000e+00 0.0000e+00 -1.0000e+00
       22  1    3    3    0    0 -2.8435793172e+01 -3.3307900017e+01 +2.8593304678e+02 2.8926755397e+02 0.0000000000e+00 0.0000e+00 -1.0000e+00
<mgrwt>
<rscale>  2 0.12500000E+03</rscale>
<asrwt>0</asrwt>
<pdfrwt beam="1">  1       21 0.75849058E-01 0.12500000E+03</pdfrwt>
<pdfrwt beam="2">  1       21 0.11137610E-02 0.12500000E+03</pdfrwt>
<totfact> 0.43633791E+06</totfact>
</mgrwt>
</event>
<event>
 6      0 +1.3698540e+00 1.25000000e+02 7.54677100e-03 1.12640300e-01
       21 -1    0    0  502  501 +0.0000000000e+00 +0.0000000000e+00 +2.6160390924e+02 2.6160390924e+02 0.0000000000e+00 0.0000e+00 1.0000e+00
       21 -1    0    0  501  502 -0.0000000000e+00 -0.0000000000e+00 -1.4931925182e+01 1.4931925182e+01 0.0000000000e+00 0.0000e+00 1.0000e+00
       25  2    1    2    0    0 +0.0000000000e+00 +0.0000000000e+00 +2.4667198405e+02 2.7653583442e+02 1.2500000000e+02 0.0000e+00 0.0000e+00
      -15  1    3    3    0    0 -3.6999549551e+01 +1.2452472625e+01 +7.0449310000e+01 8.0562359386e+01 1.7770000000e+00 0.0000e+00 -1.0000e+00
       15  1    3    3    0    0 -1.2401643857e+01 +6.5796519725e+00 +2.5087569906e+00 1.4371645036e+01 1.7770000000e+00 0.0000e+00 -1.0000e+00
       22  1    3    3    0    0 +4.9401193408e+01 -1.9032124597e+01 +1.7371391703e+02 1.8160182997e+02 0.0000000000e+00 0.0000e+00 -1.0000e+00
<mgrwt>
<rscale>  2 0.12500000E+03</rscale>
<asrwt>0</asrwt>
<pdfrwt beam="1">  1       21 0.38471160E-01 0.12500000E+03</pdfrwt>
<pdfrwt beam="2">  1       21 0.21958715E-02 0.12500000E+03</pdfrwt>
<totfact> 0.66706329E+06</totfact>
</mgrwt>
</event>
<event>
 6      0 +1.3698540e+00 1.25000000e+02 7.54677100e-03 1.12640300e-01
       21 -1    0    0  502  501 +0.0000000000e+00 +0.0000000000e+00 +2.4507095156e+02 2.4507095156e+02 0.0000000000e+00 0.0000e+00 1.0000e+00
       21 -1    0    0  501  502 -0.0000000000e+00 -0.0000000000e+00 -1.5939261569e+01 1.5939261569e+01 0.0000000000e+00 0.0000e+00 1.0000e+00
       25  2    1    2    0    0 +0.0000000000e+00 +0.0000000000e+00 +2.2913168999e+02 2.6101021313e+02 1.2500000000e+02 0.0000e+00 0.0000e+00
      -15  1    3    3    0    0 +2.0408540849e+01 -3.4395578577e+01 +1.1465304325e+02 1.2144151852e+02 1.7770000000e+00 0.0000e+00 -1.0000e+00
       15  1    3    3    0    0 -2.9167544480e+00 +4.6124414941e+01 +1.0807640754e+02 1.1755695091e+02 1.7770000000e+00 0.0000e+00 -1.0000e+00
       22  1    3    3    0    0 -1.7491786401e+01 -1.1728836365e+01 +6.4022391941e+00 2.2011743698e+01 0.0000000000e+00 0.0000e+00 -1.0000e+00
<mgrwt>
<rscale>  2 0.12500000E+03</rscale>
<asrwt>0</asrwt>
<pdfrwt beam="1">  1       21 0.36039843E-01 0.12500000E+03</pdfrwt>
<pdfrwt beam="2">  1       21 0.23440092E-02 0.12500000E+03</pdfrwt>
<totfact> 0.68608359E+06</totfact>
</mgrwt>
</event>
<event>
 6      0 +1.3698540e+00 1.25000000e+02 7.54677100e-03 1.12640300e-01
       21 -1    0    0  502  501 +0.0000000000e+00 +0.0000000000e+00 +8.1567669334e+01 8.1567669334e+01 0.0000000000e+00 0.0000e+00 -1.0000e+00
       21 -1    0    0  501  502 -0.0000000000e+00 -0.0000000000e+00 -4.7889685115e+01 4.7889685115e+01 0.0000000000e+00 0.0000e+00 -1.0000e+00
       25  2    1    2    0    0 +0.0000000000e+00 +0.0000000000e+00 +3.3677984219e+01 1.2945735445e+02 1.2500000000e+02 0.0000e+00 0.0000e+00
      -15  1    3    3    0    0 -4.8907795013e+00 +1.0318625358e+00 +2.0422334365e+01 2.1100093231e+01 1.7770000000e+00 0.0000e+00 -1.0000e+00
       15  1    3    3    0    0 -3.0662770049e+01 +1.3509345840e+01 +4.6646388094e+01 5.7460866190e+01 1.7770000000e+00 0.0000e+00 -1.0000e+00
       22  1    3    3    0    0 +3.5553549550e+01 -1.4541208376e+01 -3.3390738240e+01 5.0896395028e+01 0.0000000000e+00 0.0000e+00 -1.0000e+00
<mgrwt>
<rscale>  2 0.12500000E+03</rscale>
<asrwt>0</asrwt>
<pdfrwt beam="1">  1       21 0.11995246E-01 0.12500000E+03</pdfrwt>
<pdfrwt beam="2">  1       21 0.70426007E-02 0.12500000E+03</pdfrwt>
<totfact> 0.88196686E+06</totfact>
</mgrwt>
</event>
<event>
 6      0 +1.3698540e+00 1.25000000e+02 7.54677100e-03 1.12640300e-01
       21 -1    0    0  502  501 +0.0000000000e+00 +0.0000000000e+00 +6.6177143060e+01 6.6177143060e+01 0.0000000000e+00 0.0000e+00 -1.0000e+00
       21 -1    0    0  501  502 -0.0000000000e+00 -0.0000000000e+00 -5.9027177956e+01 5.9027177956e+01 0.0000000000e+00 0.0000e+00 -1.0000e+00
       25  2    1    2    0    0 +0.0000000000e+00 +0.0000000000e+00 +7.1499651038e+00 1.2520432102e+02 1.2500000000e+02 0.0000e+00 0.0000e+00
      -15  1    3    3    0    0 +3.4576865626e+00 -1.3332109551e+01 +3.3922735130e+01 3.6655291966e+01 1.7770000000e+00 0.0000e+00 -1.0000e+00
       15  1    3    3    0    0 -1.0245206678e+01 +1.4744154368e+01 +2.8016315449e+01 3.3323055205e+01 1.7770000000e+00 0.0000e+00 -1.0000e+00
       22  1    3    3    0    0 +6.7875201154e+00 -1.4120448175e+00 -5.4789085475e+01 5.5225973844e+01 0.0000000000e+00 0.0000e+00 -1.0000e+00
<mgrwt>
<rscale>  2 0.12500000E+03</rscale>
<asrwt>0</asrwt>
<pdfrwt beam="1">  1       21 0.97319329E-02 0.12500000E+03</pdfrwt>
<pdfrwt beam="2">  1       21 0.86804673E-02 0.12500000E+03</pdfrwt>
<totfact> 0.88959935E+06</totfact>
</mgrwt>
</event>
<event>
 6      0 +1.3698540e+00 1.25000000e+02 7.54677100e-03 1.12640300e-01
       21 -1    0    0  502  501 +0.0000000000e+00 +0.0000000000e+00 +6.3514090396e+02 6.3514090396e+02 0.0000000000e+00 0.0000e+00 -1.0000e+00
       21 -1    0    0  501  502 -0.0000000000e+00 -0.0000000000e+00 -6.1502100961e+00 6.1502100961e+00 0.0000000000e+00 0.0000e+00 -1.0000e+00
       25  2    1    2    0    0 +0.0000000000e+00 +0.0000000000e+00 +6.2899069386e+02 6.4129111406e+02 1.2500000000e+02 0.0000e+00 0.0000e+00
      -15  1    3    3    0    0 -4.2619405070e+01 +7.4497873068e+00 +8.3278577596e+01 9.3863689651e+01 1.7770000000e+00 0.0000e+00 -1.0000e+00
       15  1    3    3    0    0 +4.2619405171e+01 -7.4497828680e+00 +5.4571208625e+02 5.4742739406e+02 1.7770000000e+00 0.0000e+00 -1.0000e+00
       22  1    3    3    0    0 -1.0122648294e-07 -4.4388085078e-06 +2.9818692131e-05 3.0147432199e-05 0.0000000000e+00 0.0000e+00 1.0000e+00
<mgrwt>
<rscale>  2 0.12500000E+03</rscale>
<asrwt>0</asrwt>
<pdfrwt beam="1">  1       21 0.93403029E-01 0.12500000E+03</pdfrwt>
<pdfrwt beam="2">  1       21 0.90444310E-03 0.12500000E+03</pdfrwt>
<totfact> 0.36038222E+06</totfact>
</mgrwt>
</event>
<event>
 6      0 +1.3698540e+00 1.25000000e+02 7.54677100e-03 1.12640300e-01
       21 -1    0    0  502  501 +0.0000000000e+00 +0.0000000000e+00 +2.2232272279e+01 2.2232272279e+01 0.0000000000e+00 0.0000e+00 1.0000e+00
       21 -1    0    0  501  502 -0.0000000000e+00 -0.0000000000e+00 -1.7570178842e+02 1.7570178842e+02 0.0000000000e+00 0.0000e+00 1.0000e+00
       25  2    1    2    0    0 +0.0000000000e+00 +0.0000000000e+00 -1.5346951614e+02 1.9793406070e+02 1.2500000000e+02 0.0000e+00 0.0000e+00
      -15  1    3    3    0    0 +1.3528740415e+01 -7.3689847237e+00 -7.9143413834e+01 8.0648412480e+01 1.7770000000e+00 0.0000e+00 -1.0000e+00
       15  1    3    3    0    0 +6.4404422875e+00 -3.9345863141e+01 -3.3754439526e+01 5.2269457238e+01 1.7770000000e+00 0.0000e+00 -1.0000e+00
       22  1    3    3    0    0 -1.9969182703e+01 +4.6714847865e+01 -4.0571662775e+01 6.5016190977e+01 0.0000000000e+00 0.0000e+00 -1.0000e+00
<mgrwt>
<rscale>  2 0.12500000E+03</rscale>
<asrwt>0</asrwt>
<pdfrwt beam="1">  1       21 0.32694519E-02 0.12500000E+03</pdfrwt>
<pdfrwt beam="2">  1       21 0.25838498E-01 0.12500000E+03</pdfrwt>
<totfact> 0.77121462E+06</totfact>
</mgrwt>
</event>
<event>
 6      0 +1.3698540e+00 1.25000000e+02 7.54677100e-03 1.12640300e-01
       21 -1    0    0  502  501 +0.0000000000e+00 +0.0000000000e+00 +2.4323472374e+01 2.4323472374e+01 0.0000000000e+00 0.0000e+00 1.0000e+00
       21 -1    0    0  501  502 -0.0000000000e+00 -0.0000000000e+00 -1.6059590259e+02 1.6059590259e+02 0.0000000000e+00 0.0000e+00 1.0000e+00
       25  2    1    2    0    0 +0.0000000000e+00 +0.0000000000e+00 -1.3627243022e+02 1.8491937496e+02 1.2500000000e+02 0.0000e+00 0.0000e+00
      -15  1    3    3    0    0 -4.2630517879e+01 +4.2917112348e+00 -6.4914491541e+01 7.7799927898e+01 1.7770000000e+00 0.0000e+00 -1.0000e+00
       15  1    3    3    0    0 +1.6836595420e+01 -2.4297625354e+01 -6.8165785825e+01 7.4320775220e+01 1.7770000000e+00 0.0000e+00 -1.0000e+00
       22  1    3    3    0    0 +2.5793922459e+01 +2.0005914119e+01 -3.1921528634e+00 3.2798671855e+01 0.0000000000e+00 0.0000e+00 -1.0000e+00
<mgrwt>
<rscale>  2 0.12500000E+03</rscale>
<asrwt>0</asrwt>
<pdfrwt beam="1">  1       21 0.35769813E-02 0.12500000E+03</pdfrwt>
<pdfrwt beam="2">  1       21 0.23617044E-01 0.12500000E+03</pdfrwt>
<totfact> 0.79059245E+06</totfact>
</mgrwt>
</event>
<event>
 6      0 +1.3698540e+00 1.25000000e+02 7.54677100e-03 1.12640300e-01
       21 -1    0    0  502  501 +0.0000000000e+00 +0.0000000000e+00 +2.1037367552e+01 2.1037367552e+01 0.0000000000e+00 0.0000e+00 -1.0000e+00
       21 -1    0    0  501  502 -0.0000000000e+00 -0.0000000000e+00 -1.8568150176e+02 1.8568150176e+02 0.0000000000e+00 0.0000e+00 -1.0000e+00
       25  2    1    2    0    0 +0.0000000000e+00 +0.0000000000e+00 -1.6464413421e+02 2.0671886931e+02 1.2500000000e+02 0.0000e+00 0.0000e+00
      -15  1    3    3    0    0 +3.6914930272e+01 +1.0633893303e+01 -1.6032441071e+02 1.6487227227e+02 1.7770000000e+00 0.0000e+00 1.0000e+00
       15  1    3    3    0    0 -3.7920792837e+01 -1.0850250781e+01 -2.2635643017e+00 3.9547388332e+01 1.7770000000e+00 0.0000e+00 1.0000e+00
       22  1    3    3    0    0 +1.0058625658e+00 +2.1635747849e-01 -2.0561591991e+00 2.2992087143e+00 0.0000000000e+00 0.0000e+00 -1.0000e+00
<mgrwt>
<rscale>  2 0.12500000E+03</rscale>
<asrwt>0</asrwt>
<pdfrwt beam="1">  1       21 0.30937305E-02 0.12500000E+03</pdfrwt>
<pdfrwt beam="2">  1       21 0.27306104E-01 0.12500000E+03</pdfrwt>
<totfact> 0.75849813E+06</totfact>
</mgrwt>
</event>
<event>
 6      0 +1.3698540e+00 1.25000000e+02 7.54677100e-03 1.12640300e-01
       21 -1    0    0  502  501 +0.0000000000e+00 +0.0000000000e+00 +4.0041934111e+00 4.0041934111e+00 0.0000000000e+00 0.0000e+00 1.0000e+00
       21 -1    0    0  501  502 -0.0000000000e+00 -0.0000000000e+00 -9.7553979014e+02 9.7553979014e+02 0.0000000000e+00 0.0000e+00 1.0000e+00
       25  2    1    2    0    0 +0.0000000000e+00 +0.0000000000e+00 -9.7153559673e+02 9.7954398356e+02 1.2500000000e+02 0.0000e+00 0.0000e+00
      -15  1    3    3    0    0 +1.8795699299e+01 -1.4987324831e+01 -3.3888840771e+01 4.1587371588e+01 1.7770000000e+00 0.0000e+00 1.0000e+00
       15  1    3    3    0    0 -1.8795873233e+01 +1.4987444568e+01 -9.3764636683e+02 9.3795616918e+02 1.7770000000e+00 0.0000e+00 1.0000e+00
       22  1    3    3    0    0 +1.7393385355e-04 -1.1973699119e-04 -3.8866714623e-04 4.4232576573e-04 0.0000000000e+00 0.0000e+00 -1.0000e+00
<mgrwt>
<rscale>  2 0.12500000E+03</rscale>
<asrwt>0</asrwt>
<pdfrwt beam="1">  1       21 0.58885180E-03 0.12500000E+03</pdfrwt>
<pdfrwt beam="2">  1       21 0.14346178E+00 0.12500000E+03</pdfrwt>
<totfact> 0.21801962E+06</totfact>
</mgrwt>
</event>
<event>
 6      0 +1.3698540e+00 1.25000000e+02 7.54677100e-03 1.12640300e-01
       21 -1    0    0  502  501 +0.0000000000e+00 +0.0000000000e+00 +3.5757443636e+01 3.5757443636e+01 0.0000000000e+00 0.0000e+00 1.0000e+00
       21 -1    0    0  501  502 -0.0000000000e+00 -0.0000000000e+00 -1.0924298839e+02 1.0924298839e+02 0.0000000000e+00 0.0000e+00 1.0000e+00
       25  2    1    2    0    0 +0.0000000000e+00 +0.0000000000e+00 -7.3485544755e+01 1.4500043203e+02 1.2500000000e+02 0.0000e+00 0.0000e+00
      -15  1    3    3    0    0 +7.8388154530e+00 +5.8976391983e+00 -1.0455884435e-01 9.9698464063e+00 1.7770000000e+00 0.0000e+00 -1.0000e+00
       15  1    3    3    0    0 -5.4010857537e+01 +1.5668089793e+01 -1.6445083530e+01 5.8619623599e+01 1.7770000000e+00 0.0000e+00 -1.0000e+00
       22  1    3    3    0    0 +4.6172042084e+01 -2.1565728992e+01 -5.6935902379e+01 7.6410962021e+01 0.0000000000e+00 0.0000e+00 -1.0000e+00
<mgrwt>
<rscale>  2 0.12500000E+03</rscale>
<asrwt>0</asrwt>
<pdfrwt beam="1">  1       21 0.52584476E-02 0.12500000E+03</pdfrwt>
<pdfrwt beam="2">  1       21 0.16065145E-01 0.12500000E+03</pdfrwt>
<totfact> 0.85474183E+06</totfact>
</mgrwt>
</event>
<event>
 6      0 +1.3698540e+00 1.25000000e+02 7.54677100e-03 1.12640300e-01
       21 -1    0    0  502  501 +0.0000000000e+00 +0.0000000000e+00 +9.8050616622e+01 9.8050616622e+01 0.0000000000e+00 0.0000e+00 -1.0000e+00
       21 -1    0    0  501  502 -0.0000000000e+00 -0.0000000000e+00 -3.9839117127e+01 3.9839117127e+01 0.0000000000e+00 0.0000e+00 -1.0000e+00
       25  2    1    2    0    0 +0.0000000000e+00 +0.0000000000e+00 +5.8211499495e+01 1.3788973375e+02 1.2500000000e+02 0.0000e+00 0.0000e+00
      -15  1    3    3    0    0 -8.4287285571e+00 -1.5650137189e+00 +7.1628253075e+00 1.1311787145e+01 1.7770000000e+00 0.0000e+00 -1.0000e+00
       15  1    3    3    0    0 +7.0747337638e+00 -5.6833428735e+01 +2.8082743151e+01 6.3811352214e+01 1.7770000000e+00 0.0000e+00 -1.0000e+00
       22  1    3    3    0    0 +1.3539947933e+00 +5.8398442454e+01 +2.2965931036e+01 6.2766594389e+01 0.0000000000e+00 0.0000e+00 -1.0000e+00
<mgrwt>
<rscale>  2 0.12500000E+03</rscale>
<asrwt>0</asrwt>
<pdfrwt beam="1">  1       21 0.14419208E-01 0.12500000E+03</pdfrwt>
<pdfrwt beam="2">  1       21 0.58586937E-02 0.12500000E+03</pdfrwt>
<totfact> 0.86704326E+06</totfact>
</mgrwt>
</event>
<event>
 6      0 +1.3698540e+00 1.25000000e+02 7.54677100e-03 1.12640300e-01
       21 -1    0    0  502  501 +0.0000000000e+00 +0.0000000000e+00 +1.8862442002e+02 1.8862442002e+02 0.0000000000e+00 0.0000e+00 1.0000e+00
       21 -1    0    0  501  502 -0.0000000000e+00 -0.0000000000e+00 -2.0709142536e+01 2.0709142536e+01 0.0000000000e+00 0.0000e+00 1.0000e+00
       25  2    1    2    0    0 +0.0000000000e+00 +0.0000000000e+00 +1.6791527749e+02 2.0933356256e+02 1.2500000000e+02 0.0000e+00 0.0000e+00
      -15  1    3    3    0    0 +1.6926033535e+01 +2.0809746345e+00 +1.8460885468e+02 1.8540336572e+02 1.7770000000e+00 0.0000e+00 -1.0000e+00
       15  1    3    3    0    0 -1.6926033189e+01 -2.0809743343e+00 -1.6693577071e+01 2.3930196366e+01 1.7770000000e+00 0.0000e+00 -1.0000e+00
       22  1    3    3    0    0 -3.4576788087e-07 -3.0017098412e-07 -1.1660232998e-07 4.7249777830e-07 0.0000000000e+00 0.0000e+00 1.0000e+00
<mgrwt>
<rscale>  2 0.12500000E+03</rscale>
<asrwt>0</asrwt>
<pdfrwt beam="1">  1       21 0.27738884E-01 0.12500000E+03</pdfrwt>
<pdfrwt beam="2">  1       21 0.30454622E-02 0.12500000E+03</pdfrwt>
<totfact> 0.75478478E+06</totfact>
</mgrwt>
</event>
<event>
 6      0 +1.3698540e+00 1.25000000e+02 7.54677100e-03 1.12640300e-01
       21 -1    0    0  502  501 +0.0000000000e+00 +0.0000000000e+00 +5.4147867688e+00 5.4147867688e+00 0.0000000000e+00 0.0000e+00 1.0000e+00
       21 -1    0    0  501  502 -0.0000000000e+00 -0.0000000000e+00 -7.2140421531e+02 7.2140421531e+02 0.0000000000e+00 0.0000e+00 1.0000e+00
       25  2    1    2    0    0 +0.0000000000e+00 +0.0000000000e+00 -7.1598942854e+02 7.2681900208e+02 1.2500000000e+02 0.0000e+00 0.0000e+00
      -15  1    3    3    0    0 +1.3559033157e+01 +3.6140250016e+01 -1.3667215394e+02 1.4202957595e+02 1.7770000000e+00 0.0000e+00 -1.0000e+00
       15  1    3    3    0    0 -3.1676961007e+01 +2.8840125213e+00 -3.5181702390e+02 3.5325645559e+02 1.7770000000e+00 0.0000e+00 -1.0000e+00
       22  1    3    3    0    0 +1.8117927850e+01 -3.9024262537e+01 -2.2750025062e+02 2.3153297046e+02 0.0000000000e+00 0.0000e+00 -1.0000e+00
<mgrwt>
<rscale>  2 0.12500000E+03</rscale>
<asrwt>0</asrwt>
<pdfrwt beam="1">  1       21 0.79629250E-03 0.12500000E+03</pdfrwt>
<pdfrwt beam="2">  1       21 0.10608881E+00 0.12500000E+03</pdfrwt>
<totfact> 0.31586913E+06</totfact>
</mgrwt>
</event>
<event>
 6      0 +1.3698540e+00 1.25000000e+02 7.54677100e-03 1.12640300e-01
       21 -1    0    0  502  501 +0.0000000000e+00 +0.0000000000e+00 +9.8330157570e+02 9.8330157570e+02 0.0000000000e+00 0.0000e+00 1.0000e+00
       21 -1    0    0  501  502 -0.0000000000e+00 -0.0000000000e+00 -3.9725859254e+00 3.9725859254e+00 0.0000000000e+00 0.0000e+00 1.0000e+00
       25  2    1    2    0    0 +0.0000000000e+00 +0.0000000000e+00 +9.7932898977e+02 9.8727416162e+02 1.2500000000e+02 0.0000e+00 0.0000e+00
      -15  1    3    3    0    0 -2.2270827945e+01 -1.6592859283e+01 +2.4954604304e+02 2.5109300683e+02 1.7770000000e+00 0.0000e+00 -1.0000e+00
       15  1    3    3    0    0 +3.1245691410e+01 -2.7662178143e+01 +1.9123325192e+02 1.9574167594e+02 1.7770000000e+00 0.0000e+00 -1.0000e+00
       22  1    3    3    0    0 -8.9748634645e+00 +4.4255037425e+01 +5.3854969486e+02 5.4043947889e+02 0.0000000000e+00 0.0000e+00 -1.0000e+00
<mgrwt>
<rscale>  2 0.12500000E+03</rscale>
<asrwt>0</asrwt>
<pdfrwt beam="1">  1       21 0.14460300E+00 0.12500000E+03</pdfrwt>
<pdfrwt beam="2">  1       21 0.58420449E-03 0.12500000E+03</pdfrwt>
<totfact> 0.21564826E+06</totfact>
</mgrwt>
</event>
<event>
 6      0 +1.3698540e+00 1.25000000e+02 7.54677100e-03 1.12640300e-01
       21 -1    0    0  502  501 +0.0000000000e+00 +0.0000000000e+00 +9.4497874233e+02 9.4497874233e+02 0.0000000000e+00 0.0000e+00 1.0000e+00
       21 -1    0    0  501  502 -0.0000000000e+00 -0.0000000000e+00 -4.1336908705e+00 4.1336908705e+00 0.0000000000e+00 0.0000e+00 1.0000e+00
       25  2    1    2    0    0 +0.0000000000e+00 +0.0000000000e+00 +9.4084505146e+02 9.4911243320e+02 1.2500000000e+02 0.0000e+00 0.0000e+00
      -15  1    3    3    0    0 +3.9178599278e+01 +1.5763485834e+01 +4.8037744374e+02 4.8223344586e+02 1.7770000000e+00 0.0000e+00 -1.0000e+00
       15  1    3    3    0    0 +1.3234812797e+01 +1.1853256568e+01 +1.0951574320e+02 1.1096177584e+02 1.7770000000e+00 0.0000e+00 -1.0000e+00
       22  1    3    3    0    0 -5.2413412074e+01 -2.7616742402e+01 +3.5095186458e+02 3.5591721155e+02 0.0000000000e+00 0.0000e+00 -1.0000e+00
<mgrwt>
<rscale>  2 0.12500000E+03</rscale>
<asrwt>0</asrwt>
<pdfrwt beam="1">  1       21 0.13896731E+00 0.12500000E+03</pdfrwt>
<pdfrwt beam="2">  1       21 0.60789637E-03 0.12500000E+03</pdfrwt>
<totfact> 0.22765486E+06</totfact>
</mgrwt>
</event>
<event>
 6      0 +1.3698540e+00 1.25000000e+02 7.54677100e-03 1.12640300e-01
       21 -1    0    0  502  501 +0.0000000000e+00 +0.0000000000e+00 +4.7900584182e+01 4.7900584182e+01 0.0000000000e+00 0.0000e+00 1.0000e+00
       21 -1    0    0  501  502 -0.0000000000e+00 -0.0000000000e+00 -8.1549109823e+01 8.1549109823e+01 0.0000000000e+00 0.0000e+00 1.0000e+00
       25  2    1    2    0    0 +0.0000000000e+00 +0.0000000000e+00 -3.3648525641e+01 1.2944969400e+02 1.2500000000e+02 0.0000e+00 0.0000e+00
      -15  1    3    3    0    0 -4.8994177163e+01 -1.5915197247e+00 -2.2411877923e+01 5.3929698052e+01 1.7770000000e+00 0.0000e+00 -1.0000e+00
       15  1    3    3    0    0 +8.5933304457e+00 -1.4100529228e+01 +1.7020587781e+01 2.3780840819e+01 1.7770000000e+00 0.0000e+00 -1.0000e+00
       22  1    3    3    0    0 +4.0400846717e+01 +1.5692048953e+01 -2.8257235501e+01 5.1739155133e+01 0.0000000000e+00 0.0000e+00 -1.0000e+00
<mgrwt>
<rscale>  2 0.12500000E+03</rscale>
<asrwt>0</asrwt>
<pdfrwt beam="1">  1       21 0.70442035E-02 0.12500000E+03</pdfrwt>
<pdfrwt beam="2">  1       21 0.11992516E-01 0.12500000E+03</pdfrwt>
<totfact> 0.88198075E+06</totfact>
</mgrwt>
</event>
<event>
 6      0 +1.3698540e+00 1.25000000e+02 7.54677100e-03 1.12640300e-01
       21 -1    0    0  502  501 +0.0000000000e+00 +0.0000000000e+00 +1.2258897632e+02 1.2258897632e+02 0.0000000000e+00 0.0000e+00 -1.0000e+00
       21 -1    0    0  501  502 -0.0000000000e+00 -0.0000000000e+00 -3.1864610646e+01 3.1864610646e+01 0.0000000000e+00 0.0000e+00 -1.0000e+00
       25  2    1    2    0    0 +0.0000000000e+00 +0.0000000000e+00 +9.0724365675e+01 1.5445358697e+02 1.2500000000e+02 0.0000e+00 0.0000e+00
      -15  1    3    3    0    0 +4.2510951036e+01 -1.3443204659e+01 +1.2658726598e+01 4.6382127997e+01 1.7770000000e+00 0.0000e+00 -1.0000e+00
       15  1    3    3    0    0 -4.7993733798e+01 -3.0324969897e+00 +2.9380163265e+01 5.6382144730e+01 1.7770000000e+00 0.0000e+00 -1.0000e+00
       22  1    3    3    0    0 +5.4827827619e+00 +1.6475701649e+01 +4.8685475810e+01 5.1689314238e+01 0.0000000000e+00 0.0000e+00 -1.0000e+00
<mgrwt>
<rscale>  2 0.12500000E+03</rscale>
<asrwt>0</asrwt>
<pdfrwt beam="1">  1       21 0.18027790E-01 0.12500000E+03</pdfrwt>
<pdfrwt beam="2">  1       21 0.46859722E-02 0.12500000E+03</pdfrwt>
<totfact> 0.83885354E+06</totfact>
</mgrwt>
</event>
<event>
 6      0 +1.3698540e+00 1.25000000e+02 7.54677100e-03 1.12640300e-01
       21 -1    0    0  502  501 +0.0000000000e+00 +0.0000000000e+00 +8.1234425264e+01 8.1234425264e+01 0.0000000000e+00 0.0000e+00 -1.0000e+00
       21 -1    0    0  501  502 -0.0000000000e+00 -0.0000000000e+00 -4.8086140664e+01 4.8086140664e+01 0.0000000000e+00 0.0000e+00 -1.0000e+00
       25  2    1    2    0    0 +0.0000000000e+00 +0.0000000000e+00 +3.3148284600e+01 1.2932056593e+02 1.2500000000e+02 0.0000e+00 0.0000e+00
      -15  1    3    3    0    0 -1.4638883820e+01 +2.6707304799e+01 +4.5689133235e+00 3.0848172508e+01 1.7770000000e+00 0.0000e+00 -1.0000e+00
       15  1    3    3    0    0 -1.7072050329e+01 +1.3313531621e+01 -1.8865602973e+01 2.8771057178e+01 1.7770000000e+00 0.0000e+00 -1.0000e+00
       22  1    3    3    0    0 +3.1710934148e+01 -4.0020836420e+01 +4.7444974249e+01 6.9701336241e+01 0.0000000000e+00 0.0000e+00 -1.0000e+00
<mgrwt>
<rscale>  2 0.12500000E+03</rscale>
<asrwt>0</asrwt>
<pdfrwt beam="1">  1       21 0.11946239E-01 0.12500000E+03</pdfrwt>
<pdfrwt beam="2">  1       21 0.70714912E-02 0.12500000E+03</pdfrwt>
<totfact> 0.88221461E+06</totfact>
</mgrwt>
</event>
<event>
 6      0 +1.3698540e+00 1.25000000e+02 7.54677100e-03 1.12640300e-01
       21 -1    0    0  502  501 +0.0000000000e+00 +0.0000000000e+00 +5.7242630568e+01 5.7242630568e+01 0.0000000000e+00 0.0000e+00 1.0000e+00
       21 -1    0    0  501  502 -0.0000000000e+00 -0.0000000000e+00 -6.8240225183e+01 6.8240225183e+01 0.0000000000e+00 0.0000e+00 1.0000e+00
       25  2    1    2    0    0 +0.0000000000e+00 +0.0000000000e+00 -1.0997594615e+01 1.2548285575e+02 1.2500000000e+02 0.0000e+00 0.0000e+00
      -15  1    3    3    0    0 +3.0876208409e+01 +2.1103080877e+00 +2.8402916116e+01 4.2043751247e+01 1.7770000000e+00 0.0000e+00 -1.0000e+00
       15  1    3    3    0    0 +1.6820654274e+01 +1.3342928760e+01 -3.6254476313e+00 2.1846504471e+01 1.7770000000e+00 0.0000e+00 -1.0000e+00
       22  1    3    3    0    0 -4.7696862683e+01 -1.5453236847e+01 -3.5775063101e+01 6.1592600033e+01 0.0000000000e+00 0.0000e+00 -1.0000e+00
<mgrwt>
<rscale>  2 0.12500000E+03</rscale>
<asrwt>0</asrwt>
<pdfrwt beam="1">  1       21 0.84180339E-02 0.12500000E+03</pdfrwt>
<pdfrwt beam="2">  1       21 0.10035327E-01 0.12500000E+03</pdfrwt>
<totfact> 0.88906643E+06</totfact>
</mgrwt>
</event>
<event>
 6      0 +1.3698540e+00 1.25000000e+02 7.54677100e-03 1.12640300e-01
       21 -1    0    0  502  501 +0.0000000000e+00 +0.0000000000e+00 +4.6808082487e+02 4.6808082487e+02 0.0000000000e+00 0.0000e+00 -1.0000e+00
       21 -1    0    0  501  502 -0.0000000000e+00 -0.0000000000e+00 -8.3452467874e+00 8.3452467874e+00 0.0000000000e+00 0.0000e+00 -1.0000e+00
       25  2    1    2    0    0 +0.0000000000e+00 +0.0000000000e+00 +4.5973557808e+02 4.7642607166e+02 1.2500000000e+02 0.0000e+00 0.0000e+00
      -15  1    3    3    0    0 +4.3457222840e+01 -1.9922095151e+01 +3.8316371208e+02 3.8613858662e+02 1.7770000000e+00 0.0000e+00 1.0000e+00
       15  1    3    3    0    0 -4.3457194065e+01 +1.9922107770e+01 +7.6571773869e+01 9.0287387693e+01 1.7770000000e+00 0.0000e+00 1.0000e+00
       22  1    3    3    0    0 -2.8774569804e-05 -1.2618854352e-05 +9.2055030018e-05 9.7269419162e-05 0.0000000000e+00 0.0000e+00 1.0000e+00
<mgrwt>
<rscale>  2 0.12500000E+03</rscale>
<asrwt>0</asrwt>
<pdfrwt beam="1">  1       21 0.68835398E-01 0.12500000E+03</pdfrwt>
<pdfrwt beam="2">  1       21 0.12272425E-02 0.12500000E+03</pdfrwt>
<totfact> 0.47133271E+06</totfact>
</mgrwt>
</event>
<event>
 6      0 +1.3698540e+00 1.25000000e+02 7.54677100e-03 1.12640300e-01
       21 -1    0    0  502  501 +0.0000000000e+00 +0.0000000000e+00 +2.1144447247e+00 2.1144447247e+00 0.0000000000e+00 0.0000e+00 1.0000e+00
       21 -1    0    0  501  502 -0.0000000000e+00 -0.0000000000e+00 -1.8474117362e+03 1.8474117362e+03 0.0000000000e+00 0.0000e+00 1.0000e+00
       25  2    1    2    0    0 +0.0000000000e+00 +0.0000000000e+00 -1.8452972915e+03 1.8495261809e+03 1.2500000000e+02 0.0000e+00 0.0000e+00
      -15  1    3    3    0    0 -1.0508366519e+00 -3.8362140677e+01 -1.4733551284e+03 1.4738559123e+03 1.7770000000e+00 0.0000e+00 1.0000e+00
       15  1    3    3    0    0 +9.4941433213e-01 +4.1933128078e+01 -2.3758208923e+02 2.4126271049e+02 1.7770000000e+00 0.0000e+00 1.0000e+00
       22  1    3    3    0    0 +1.0142231980e-01 -3.5709874010e+00 -1.3436008465e+02 1.3440756893e+02 0.0000000000e+00 0.0000e+00 -1.0000e+00
<mgrwt>
<rscale>  2 0.12500000E+03</rscale>
<asrwt>0</asrwt>
<pdfrwt beam="1">  1       21 0.31094798E-03 0.12500000E+03</pdfrwt>
<pdfrwt beam="2">  1       21 0.27167800E+00 0.12500000E+03</pdfrwt>
<totfact> 0.65959291E+05</totfact>
</mgrwt>
</event>
<event>
 6      0 +1.3698540e+00 1.25000000e+02 7.54677100e-03 1.12640300e-01
       21 -1    0    0  502  501 +0.0000000000e+00 +0.0000000000e+00 +2.2349688942e+02 2.2349688942e+02 0.0000000000e+00 0.0000e+00 -1.0000e+00
       21 -1    0    0  501  502 -0.0000000000e+00 -0.0000000000e+00 -1.7477871885e+01 1.7477871885e+01 0.0000000000e+00 0.0000e+00 -1.0000e+00
       25  2    1    2    0    0 +0.0000000000e+00 +0.0000000000e+00 +2.0601901753e+02 2.4097476130e+02 1.2500000000e+02 0.0000e+00 0.0000e+00
      -15  1    3    3    0    0 +2.1373505072e+01 +6.2272010857e+00 -1.4875344585e+00 2.2382476186e+01 1.7770000000e+00 0.0000e+00 -1.0000e+00
       15  1    3    3    0    0 -1.4430384850e+01 -2.5491767724e+01 +1.8811426964e+02 1.9038960686e+02 1.7770000000e+00 0.0000e+00 -1.0000e+00
       22  1    3    3    0    0 -6.9431202215e+00 +1.9264566639e+01 +1.9392282352e+01 2.8202678259e+01 0.0000000000e+00 0.0000e+00 -1.0000e+00
<mgrwt>
<rscale>  2 0.12500000E+03</rscale>
<asrwt>0</asrwt>
<pdfrwt beam="1">  1       21 0.32867188E-01 0.12500000E+03</pdfrwt>
<pdfrwt beam="2">  1       21 0.25702754E-02 0.12500000E+03</pdfrwt>
<totfact> 0.71177986E+06</totfact>
</mgrwt>
</event>
<event>
 6      0 +1.3698540e+00 1.25000000e+02 7.54677100e-03 1.12640300e-01
       21 -1    0    0  502  501 +0.0000000000e+00 +0.0000000000e+00 +8.5055576054e+01 8.5055576054e+01 0.0000000000e+00 0.0000e+00 -1.0000e+00
       21 -1    0    0  501  502 -0.0000000000e+00 -0.0000000000e+00 -4.5925854379e+01 4.5925854379e+01 0.0000000000e+00 0.0000e+00 -1.0000e+00
       25  2    1    2    0    0 +0.0000000000e+00 +0.0000000000e+00 +3.9129721675e+01 1.3098143043e+02 1.2500000000e+02 0.0000e+00 0.0000e+00
      -15  1    3    3    0    0 +5.4798106422e+00 +4.6535541125e+01 +6.2856539107e+01 7.8419941022e+01 1.7770000000e+00 0.0000e+00 -1.0000e+00
       15  1    3    3    0    0 -5.4654092492e+00 -4.6533156541e+01 -2.3716826118e+01 5.2543800072e+01 1.7770000000e+00 0.0000e+00 -1.0000e+00
       22  1    3    3    0    0 -1.4401393030e-02 -2.3845841775e-03 -9.9913136181e-03 1.7689338899e-02 0.0000000000e+00 0.0000e+00 1.0000e+00
<mgrwt>
<rscale>  2 0.12500000E+03</rscale>
<asrwt>0</asrwt>
<pdfrwt beam="1">  1       21 0.12508173E-01 0.12500000E+03</pdfrwt>
<pdfrwt beam="2">  1       21 0.67538021E-02 0.12500000E+03</pdfrwt>
<totfact> 0.87919440E+06</totfact>
</mgrwt>
</event>
<event>
 6      0 +1.3698540e+00 1.25000000e+02 7.54677100e-03 1.12640300e-01
       21 -1    0    0  502  501 +0.0000000000e+00 +0.0000000000e+00 +5.7356995662e+01 5.7356995662e+01 0.0000000000e+00 0.0000e+00 -1.0000e+00
       21 -1    0    0  501  502 -0.0000000000e+00 -0.0000000000e+00 -6.8104159831e+01 6.8104159831e+01 0.0000000000e+00 0.0000e+00 -1.0000e+00
       25  2    1    2    0    0 +0.0000000000e+00 +0.0000000000e+00 -1.0747164169e+01 1.2546115549e+02 1.2500000000e+02 0.0000e+00 0.0000e+00
      -15  1    3    3    0    0 -4.5144223571e+01 +7.7026606885e+00 +1.6258205574e+00 4.5859927224e+01 1.7770000000e+00 0.0000e+00 -1.0000e+00
       15  1    3    3    0    0 -2.2947680931e+00 +5.7229066502e+00 +1.9744111539e+01 2.0760666911e+01 1.7770000000e+00 0.0000e+00 -1.0000e+00
       22  1    3    3    0    0 +4.7438991664e+01 -1.3425567339e+01 -3.2117096266e+01 5.8840561359e+01 0.0000000000e+00 0.0000e+00 -1.0000e+00
<mgrwt>
<rscale>  2 0.12500000E+03</rscale>
<asrwt>0</asrwt>
<pdfrwt beam="1">  1       21 0.84348524E-02 0.12500000E+03</pdfrwt>
<pdfrwt beam="2">  1       21 0.10015318E-01 0.12500000E+03</pdfrwt>
<totfact> 0.88910709E+06</totfact>
</mgrwt>
</event>
<event>
 6      0 +1.3698540e+00 1.25000000e+02 7.54677100e-03 1.12640300e-01
       21 -1    0    0  502  501 +0.0000000000e+00 +0.0000000000e+00 +6.5597011402e+01 6.5597011402e+01 0.0000000000e+00 0.0000e+00 1.0000e+00
       21 -1    0    0  501  502 -0.0000000000e+00 -0.0000000000e+00 -5.9549206839e+01 5.9549206839e+01 0.0000000000e+00 0.0000e+00 1.0000e+00
       25  2    1    2    0    0 +0.0000000000e+00 +0.0000000000e+00 +6.0478045621e+00 1.2514621824e+02 1.2500000000e+02 0.0000e+00 0.0000e+00
      -15  1    3    3    0    0 +6.2800149897e+00 -1.7964841948e+01 +2.0553488239e+01 2.8067378615e+01 1.7770000000e+00 0.0000e+00 -1.0000e+00
       15  1    3    3    0    0 +2.7341226831e+01 -2.0892847762e+01 +1.5273473333e+01 3.7689394913e+01 1.7770000000e+00 0.0000e+00 -1.0000e+00
       22  1    3    3    0    0 -3.3621241821e+01 +3.8857689710e+01 -2.9779157010e+01 5.9389444714e+01 0.0000000000e+00 0.0000e+00 -1.0000e+00
<mgrwt>
<rscale>  2 0.12500000E+03</rscale>
<asrwt>0</asrwt>
<pdfrwt beam="1">  1       21 0.96466194E-02 0.12500000E+03</pdfrwt>
<pdfrwt beam="2">  1       21 0.87572363E-02 0.12500000E+03</pdfrwt>
<totfact> 0.88971557E+06</totfact>
</mgrwt>
</event>
<event>
 6      0 +1.3698540e+00 1.25000000e+02 7.54677100e-03 1.12640300e-01
       21 -1    0    0  502  501 +0.0000000000e+00 +0.0000000000e+00 +4.5341849138e+01 4.5341849138e+01 0.0000000000e+00 0.0000e+00 -1.0000e+00
       21 -1    0    0  501  502 -0.0000000000e+00 -0.0000000000e+00 -8.6151096045e+01 8.6151096045e+01 0.0000000000e+00 0.0000e+00 -1.0000e+00
       25  2    1    2    0    0 +0.0000000000e+00 +0.0000000000e+00 -4.0809246907e+01 1.3149294518e+02 1.2500000000e+02 0.0000e+00 0.0000e+00
      -15  1    3    3    0    0 +1.5485403033e+01 -2.5340367527e+01 -1.3928073873e+01 3.2849366878e+01 1.7770000000e+00 0.0000e+00 -1.0000e+00
       15  1    3    3    0    0 -2.7331833023e+00 -3.1623521027e+01 +4.9197011064e+00 3.2169528457e+01 1.7770000000e+00 0.0000e+00 -1.0000e+00
       22  1    3    3    0    0 -1.2752219731e+01 +5.6963888554e+01 -3.1800874143e+01 6.6474049851e+01 0.0000000000e+00 0.0000e+00 -1.0000e+00
<mgrwt>
<rscale>  2 0.12500000E+03</rscale>
<asrwt>0</asrwt>
<pdfrwt beam="1">  1       21 0.66679191E-02 0.12500000E+03</pdfrwt>
<pdfrwt beam="2">  1       21 0.12669279E-01 0.12500000E+03</pdfrwt>
<totfact> 0.87827185E+06</totfact>
</mgrwt>
</event>
<event>
 6      0 +1.3698540e+00 1.25000000e+02 7.54677100e-03 1.12640300e-01
       21 -1    0    0  502  501 +0.0000000000e+00 +0.0000000000e+00 +1.0094317970e+01 1.0094317970e+01 0.0000000000e+00 0.0000e+00 1.0000e+00
       21 -1    0    0  501  502 -0.0000000000e+00 -0.0000000000e+00 -3.8697512912e+02 3.8697512912e+02 0.0000000000e+00 0.0000e+00 1.0000e+00
       25  2    1    2    0    0 +0.0000000000e+00 +0.0000000000e+00 -3.7688081115e+02 3.9706944709e+02 1.2500000000e+02 0.0000e+00 0.0000e+00
      -15  1    3    3    0    0 -1.4479878757e+01 -2.8048989532e+01 -4.6500144099e+01 5.6230186135e+01 1.7770000000e+00 0.0000e+00 -1.0000e+00
       15  1    3    3    0    0 -2.9022291387e+01 +7.0012663525e+00 -7.1773529918e+01 7.7755440027e+01 1.7770000000e+00 0.0000e+00 -1.0000e+00
       22  1    3    3    0    0 +4.3502170144e+01 +2.1047723179e+01 -2.5860713714e+02 2.6308382094e+02 0.0000000000e+00 0.0000e+00 -1.0000e+00
<mgrwt>
<rscale>  2 0.12500000E+03</rscale>
<asrwt>0</asrwt>
<pdfrwt beam="1">  1       21 0.14844582E-02 0.12500000E+03</pdfrwt>
<pdfrwt beam="2">  1       21 0.56908121E-01 0.12500000E+03</pdfrwt>
<totfact> 0.53927472E+06</totfact>
</mgrwt>
</event>
<event>
 6      0 +1.3698540e+00 1.25000000e+02 7.54677100e-03 1.12640300e-01
       21 -1    0    0  502  501 +0.0000000000e+00 +0.0000000000e+00 +2.1760112206e+02 2.1760112206e+02 0.0000000000e+00 0.0000e+00 1.0000e+00
       21 -1    0    0  501  502 -0.0000000000e+00 -0.0000000000e+00 -1.7951423977e+01 1.7951423977e+01 0.0000000000e+00 0.0000e+00 1.0000e+00
       25  2    1    2    0    0 +0.0000000000e+00 +0.0000000000e+00 +1.9964969808e+02 2.3555254604e+02 1.2500000000e+02 0.0000e+00 0.0000e+00
      -15  1    3    3    0    0 -3.1609853378e+01 +5.0291313228e+01 +6.3371047607e+01 8.6876040544e+01 1.7770000000e+00 0.0000e+00 -1.0000e+00
       15  1    3    3    0    0 +3.1612360044e+01 -5.0296067845e+01 +1.3626674445e+02 1.4866344244e+02 1.7770000000e+00 0.0000e+00 -1.0000e+00
       22  1    3    3    0    0 -2.5066663375e-03 +4.7546169780e-03 +1.1906012625e-02 1.3063035458e-02 0.0000000000e+00 0.0000e+00 1.0000e+00
<mgrwt>
<rscale>  2 0.12500000E+03</rscale>
<asrwt>0</asrwt>
<pdfrwt beam="1">  1       21 0.32000163E-01 0.12500000E+03</pdfrwt>
<pdfrwt beam="2">  1       21 0.26399154E-02 0.12500000E+03</pdfrwt>
<totfact> 0.71895806E+06</totfact>
</mgrwt>
</event>
<event>
 6      0 +1.3698540e+00 1.25000000e+02 7.54677100e-03 1.12640300e-01
       21 -1    0    0  502  501 +0.0000000000e+00 +0.0000000000e+00 +3.8692134177e+01 3.8692134177e+01 0.0000000000e+00 0.0000e+00 1.0000e+00
       21 -1    0    0  501  502 -0.0000000000e+00 -0.0000000000e+00 -1.0095721218e+02 1.0095721218e+02 0.0000000000e+00 0.0000e+00 1.0000e+00
       25  2    1    2    0    0 +0.0000000000e+00 +0.0000000000e+00 -6.2265078008e+01 1.3964934636e+02 1.2500000000e+02 0.0000e+00 0.0000e+00
      -15  1    3    3    0    0 +4.6396288555e+01 +4.1812749644e+01 -3.2778514776e+01 7.0558559965e+01 1.7770000000e+00 0.0000e+00 -1.0000e+00
       15  1    3    3    0    0 -4.6396287400e+01 -4.1812748545e+01 -2.9486562441e+01 6.9090784617e+01 1.7770000000e+00 0.0000e+00 -1.0000e+00
       22  1    3    3    0    0 -1.1548297293e-06 -1.0992370279e-06 -7.9117336192e-07 1.7798620833e-06 0.0000000000e+00 0.0000e+00 1.0000e+00
<mgrwt>
<rscale>  2 0.12500000E+03</rscale>
<asrwt>0</asrwt>
<pdfrwt beam="1">  1       21 0.56900197E-02 0.12500000E+03</pdfrwt>
<pdfrwt beam="2">  1       21 0.14846649E-01 0.12500000E+03</pdfrwt>
<totfact> 0.86400912E+06</totfact>
</mgrwt>
</event>
<event>
 6      0 +1.3698540e+00 1.25000000e+02 7.54677100e-03 1.12640300e-01
       21 -1    0    0  502  501 +0.0000000000e+00 +0.0000000000e+00 +1.8576996975e+02 1.8576996975e+02 0.0000000000e+00 0.0000e+00 1.0000e+00
       21 -1    0    0  501  502 -0.0000000000e+00 -0.0000000000e+00 -2.1027349066e+01 2.1027349066e+01 0.0000000000e+00 0.0000e+00 1.0000e+00
       25  2    1    2    0    0 +0.0000000000e+00 +0.0000000000e+00 +1.6474262069e+02 2.0679731882e+02 1.2500000000e+02 0.0000e+00 0.0000e+00
      -15  1    3    3    0    0 +6.7177449442e+00 -2.4606423884e+00 -9.3297638865e+00 1.1890545878e+01 1.7770000000e+00 0.0000e+00 -1.0000e+00
       15  1    3    3    0    0 -1.8519065711e+00 +1.0802476635e+01 -7.2931990778e+00 1.3284259151e+01 1.7770000000e+00 0.0000e+00 -1.0000e+00
       22  1    3    3    0    0 -4.8658383731e+00 -8.3418342467e+00 +1.8136558366e+02 1.8162251380e+02 0.0000000000e+00 0.0000e+00 -1.0000e+00
<mgrwt>
<rscale>  2 0.12500000E+03</rscale>
<asrwt>0</asrwt>
<pdfrwt beam="1">  1       21 0.27319112E-01 0.12500000E+03</pdfrwt>
<pdfrwt beam="2">  1       21 0.30922573E-02 0.12500000E+03</pdfrwt>
<totfact> 0.75838627E+06</totfact>
</mgrwt>
</event>
<event>
 6      0 +1.3698540e+00 1.25000000e+02 7.54677100e-03 1.12640300e-01
       21 -1    0    0  502  501 +0.0000000000e+00 +0.0000000000e+00 +4.9223881837e+01 4.9223881837e+01 0.0000000000e+00 0.0000e+00 1.0000e+00
       21 -1    0    0  501  502 -0.0000000000e+00 -0.0000000000e+00 -7.9356805156e+01 7.9356805156e+01 0.0000000000e+00 0.0000e+00 1.0000e+00
       25  2    1    2    0    0 +0.0000000000e+00 +0.0000000000e+00 -3.0132923319e+01 1.2858068699e+02 1.2500000000e+02 0.0000e+00 0.0000e+00
      -15  1    3    3    0    0 +1.1451264305e+00 -1.0906889773e+01 +1.3864509574e+01 1.7766651733e+01 1.7770000000e+00 0.0000e+00 -1.0000e+00
       15  1    3    3    0    0 -2.0386665258e+01 -4.1184825770e+01 -2.3261982197e+01 5.1537205384e+01 1.7770000000e+00 0.0000e+00 -1.0000e+00
       22  1    3    3    0    0 +1.9241538828e+01 +5.2091715543e+01 -2.0735450698e+01 5.9276829878e+01 0.0000000000e+00 0.0000e+00 -1.0000e+00
<mgrwt>
<rscale>  2 0.12500000E+03</rscale>
<asrwt>0</asrwt>
<pdfrwt beam="1">  1       21 0.72388063E-02 0.12500000E+03</pdfrwt>
<pdfrwt beam="2">  1       21 0.11670118E-01 0.12500000E+03</pdfrwt>
<totfact> 0.88354549E+06</totfact>
</mgrwt>
</event>
<event>
 6      0 +1.3698540e+00 1.25000000e+02 7.54677100e-03 1.12640300e-01
       21 -1    0    0  502  501 +0.0000000000e+00 +0.0000000000e+00 +4.7183476695e+01 4.7183476695e+01 0.0000000000e+00 0.0000e+00 1.0000e+00
       21 -1    0    0  501  502 -0.0000000000e+00 -0.0000000000e+00 -8.2788515676e+01 8.2788515676e+01 0.0000000000e+00 0.0000e+00 1.0000e+00
       25  2    1    2    0    0 +0.0000000000e+00 +0.0000000000e+00 -3.5605038981e+01 1.2997199237e+02 1.2500000000e+02 0.0000e+00 0.0000e+00
      -15  1    3    3    0    0 +1.5672504458e+01 -5.4529907719e+00 +2.8428657433e+00 1.6929327187e+01 1.7770000000e+00 0.0000e+00 -1.0000e+00
       15  1    3    3    0    0 -7.1488776633e+00 -4.5810397026e+01 -3.9693039615e+01 6.1060576892e+01 1.7770000000e+00 0.0000e+00 -1.0000e+00
       22  1    3    3    0    0 -8.5236267951e+00 +5.1263387798e+01 +1.2451348898e+00 5.1982088292e+01 0.0000000000e+00 0.0000e+00 -1.0000e+00
<mgrwt>
<rscale>  2 0.12500000E+03</rscale>
<asrwt>0</asrwt>
<pdfrwt beam="1">  1       21 0.69387467E-02 0.12500000E+03</pdfrwt>
<pdfrwt beam="2">  1       21 0.12174782E-01 0.12500000E+03</pdfrwt>
<totfact> 0.88103076E+06</totfact>
</mgrwt>
</event>
<event>
 6      0 +1.3698540e+00 1.25000000e+02 7.54677100e-03 1.12640300e-01
       21 -1    0    0  502  501 +0.0000000000e+00 +0.0000000000e+00 +2.4721014020e+02 2.4721014020e+02 0.0000000000e+00 0.0000e+00 -1.0000e+00
       21 -1    0    0  501  502 -0.0000000000e+00 -0.0000000000e+00 -1.5801334026e+01 1.5801334026e+01 0.0000000000e+00 0.0000e+00 -1.0000e+00
       25  2    1    2    0    0 +0.0000000000e+00 +0.0000000000e+00 +2.3140880617e+02 2.6301147423e+02 1.2500000000e+02 0.0000e+00 0.0000e+00
      -15  1    3    3    0    0 +2.7675177641e+01 -7.9258587368e+00 +6.3261962847e+01 6.9526745692e+01 1.7770000000e+00 0.0000e+00 -1.0000e+00
       15  1    3    3    0    0 -1.4235500940e+01 -2.8500825636e+01 +1.4571914585e+01 3.5077699079e+01 1.7770000000e+00 0.0000e+00 -1.0000e+00
       22  1    3    3    0    0 -1.3439676701e+01 +3.6426684373e+01 +1.5357492871e+02 1.5840702943e+02 0.0000000000e+00 0.0000e+00 -1.0000e+00
<mgrwt>
<rscale>  2 0.12500000E+03</rscale>
<asrwt>0</asrwt>
<pdfrwt beam="1">  1       21 0.36354430E-01 0.12500000E+03</pdfrwt>
<pdfrwt beam="2">  1       21 0.23237257E-02 0.12500000E+03</pdfrwt>
<totfact> 0.68359093E+06</totfact>
</mgrwt>
</event>
<event>
 6      0 +1.3698540e+00 1.25000000e+02 7.54677100e-03 1.12640300e-01
       21 -1    0    0  502  501 +0.0000000000e+00 +0.0000000000e+00 +8.3676056126e+02 8.3676056126e+02 0.0000000000e+00 0.0000e+00 1.0000e+00
       21 -1    0    0  501  502 -0.0000000000e+00 -0.0000000000e+00 -4.6683008029e+00 4.6683008029e+00 0.0000000000e+00 0.0000e+00 1.0000e+00
       25  2    1    2    0    0 +0.0000000000e+00 +0.0000000000e+00 +8.3209226046e+02 8.4142886207e+02 1.2500000000e+02 0.0000e+00 0.0000e+00
      -15  1    3    3    0    0 -4.2848771525e+01 +2.0445729093e+01 +3.7272447181e+02 3.7574024894e+02 1.7770000000e+00 0.0000e+00 -1.0000e+00
       15  1    3    3    0    0 +3.5343508297e+01 -1.5070079367e+01 +1.1627506117e+02 1.2247170469e+02 1.7770000000e+00 0.0000e+00 -1.0000e+00
       22  1    3    3    0    0 +7.5052632280e+00 -5.3756497255e+00 +3.4309272731e+02 3.4321690826e+02 0.0000000000e+00 0.0000e+00 -1.0000e+00
<mgrwt>
<rscale>  2 0.12500000E+03</rscale>
<asrwt>0</asrwt>
<pdfrwt beam="1">  1       21 0.12305292E+00 0.12500000E+03</pdfrwt>
<pdfrwt beam="2">  1       21 0.68651540E-03 0.12500000E+03</pdfrwt>
<totfact> 0.26606845E+06</totfact>
</mgrwt>
</event>
<event>
 6      0 +1.3698540e+00 1.25000000e+02 7.54677100e-03 1.12640300e-01
       21 -1    0    0  502  501 +0.0000000000e+00 +0.0000000000e+00 +3.8854469692e+02 3.8854469692e+02 0.0000000000e+00 0.0000e+00 -1.0000e+00
       21 -1    0    0  501  502 -0.0000000000e+00 -0.0000000000e+00 -1.0053540895e+01 1.0053540895e+01 0.0000000000e+00 0.0000e+00 -1.0000e+00
       25  2    1    2    0    0 +0.0000000000e+00 +0.0000000000e+00 +3.7849115602e+02 3.9859823781e+02 1.2500000000e+02 0.0000e+00 0.0000e+00
      -15  1    3    3    0    0 +4.0281457408e+01 -1.9770368403e+01 +5.0629560488e+01 6.7675500751e+01 1.7770000000e+00 0.0000e+00 -1.0000e+00
       15  1    3    3    0    0 -4.0281423826e+01 +1.9770405398e+01 +3.2785965371e+02 3.3092079459e+02 1.7770000000e+00 0.0000e+00 -1.0000e+00
       22  1    3    3    0    0 -3.3581994403e-05 -3.6995244987e-05 +1.9418245880e-03 1.9424672788e-03 0.0000000000e+00 0.0000e+00 1.0000e+00
<mgrwt>
<rscale>  2 0.12500000E+03</rscale>
<asrwt>0</asrwt>
<pdfrwt beam="1">  1       21 0.57138916E-01 0.12500000E+03</pdfrwt>
<pdfrwt beam="2">  1       21 0.14784622E-02 0.12500000E+03</pdfrwt>
<totfact> 0.53785600E+06</totfact>
</mgrwt>
</event>
<event>
 6      0 +1.3698540e+00 1.25000000e+02 7.54677100e-03 1.12640300e-01
       21 -1    0    0  502  501 +0.0000000000e+00 +0.0000000000e+00 +6.2729306813e+01 6.2729306813e+01 0.0000000000e+00 0.0000e+00 -1.0000e+00
       21 -1    0    0  501  502 -0.0000000000e+00 -0.0000000000e+00 -6.2271531417e+01 6.2271531417e+01 0.0000000000e+00 0.0000e+00 -1.0000e+00
       25  2    1    2    0    0 +0.0000000000e+00 +0.0000000000e+00 +4.5777539544e-01 1.2500083823e+02 1.2500000000e+02 0.0000e+00 0.0000e+00
      -15  1    3    3    0    0 +4.0190001210e+01 -3.6947417034e+01 +3.0601385016e+01 6.2609506599e+01 1.7770000000e+00 0.0000e+00 -1.0000e+00
       15  1    3    3    0    0 -3.6630925252e+01 +3.3787136519e+01 -2.7392075827e+01 5.6893574559e+01 1.7770000000e+00 0.0000e+00 -1.0000e+00
       22  1    3    3    0    0 -3.5590759580e+00 +3.1602805144e+00 -2.7515337936e+00 5.4977570718e+00 0.0000000000e+00 0.0000e+00 1.0000e+00
<mgrwt>
<rscale>  2 0.12500000E+03</rscale>
<asrwt>0</asrwt>
<pdfrwt beam="1">  1       21 0.92248981E-02 0.12500000E+03</pdfrwt>
<pdfrwt beam="2">  1       21 0.91575781E-02 0.12500000E+03</pdfrwt>
<totfact> 0.89002082E+06</totfact>
</mgrwt>
</event>
<event>
 6      0 +1.3698540e+00 1.25000000e+02 7.54677100e-03 1.12640300e-01
       21 -1    0    0  502  501 +0.0000000000e+00 +0.0000000000e+00 +2.0182943176e+02 2.0182943176e+02 0.0000000000e+00 0.0000e+00 -1.0000e+00
       21 -1    0    0  501  502 -0.0000000000e+00 -0.0000000000e+00 -1.9354213931e+01 1.9354213931e+01 0.0000000000e+00 0.0000e+00 -1.0000e+00
       25  2    1    2    0    0 +0.0000000000e+00 +0.0000000000e+00 +1.8247521783e+02 2.2118364570e+02 1.2500000000e+02 0.0000e+00 0.0000e+00
      -15  1    3    3    0    0 -2.8003778812e+01 -9.4058632566e+00 +1.2816557031e+01 3.2250639599e+01 1.7770000000e+00 0.0000e+00 -1.0000e+00
       15  1    3    3    0    0 +3.1539641453e+01 +3.6801066988e+01 +6.7574545107e+01 8.3177787839e+01 1.7770000000e+00 0.0000e+00 -1.0000e+00
       22  1    3    3    0    0 -3.5358626410e+00 -2.7395203731e+01 +1.0208411567e+02 1.0575521824e+02 0.0000000000e+00 0.0000e+00 -1.0000e+00
<mgrwt>
<rscale>  2 0.12500000E+03</rscale>
<asrwt>0</asrwt>
<pdfrwt beam="1">  1       21 0.29680798E-01 0.12500000E+03</pdfrwt>
<pdfrwt beam="2">  1       21 0.28462080E-02 0.12500000E+03</pdfrwt>
<totfact> 0.73831076E+06</totfact>
</mgrwt>
</event>
<event>
 6      0 +1.3698540e+00 1.25000000e+02 7.54677100e-03 1.12640300e-01
       21 -1    0    0  502  501 +0.0000000000e+00 +0.0000000000e+00 +6.4109611810e+01 6.4109611810e+01 0.0000000000e+00 0.0000e+00 1.0000e+00
       21 -1    0    0  501  502 -0.0000000000e+00 -0.0000000000e+00 -6.0930801009e+01 6.0930801009e+01 0.0000000000e+00 0.0000e+00 1.0000e+00
       25  2    1    2    0    0 +0.0000000000e+00 +0.0000000000e+00 +3.1788108010e+00 1.2504041282e+02 1.2500000000e+02 0.0000e+00 0.0000e+00
      -15  1    3    3    0    0 -4.8854325490e+01 -1.6816766599e+01 +2.3959906066e+00 5.1753717333e+01 1.7770000000e+00 0.0000e+00 -1.0000e+00
       15  1    3    3    0    0 +4.8588456678e+01 +1.6448566866e+00 -1.5472041012e+01 5.1049833085e+01 1.7770000000e+00 0.0000e+00 -1.0000e+00
       22  1    3    3    0    0 +2.6586881140e-01 +1.5171909912e+01 +1.6254861207e+01 2.2236862402e+01 0.0000000000e+00 0.0000e+00 -1.0000e+00
<mgrwt>
<rscale>  2 0.12500000E+03</rscale>
<asrwt>0</asrwt>
<pdfrwt beam="1">  1       21 0.94278841E-02 0.12500000E+03</pdfrwt>
<pdfrwt beam="2">  1       21 0.89604119E-02 0.12500000E+03</pdfrwt>
<totfact> 0.88993698E+06</totfact>
</mgrwt>
</event>
<event>
 6      0 +1.3698540e+00 1.25000000e+02 7.54677100e-03 1.12640300e-01
       21 -1    0    0  502  501 +0.0000000000e+00 +0.0000000000e+00 +6.8284747470e+01 6.8284747470e+01 0.0000000000e+00 0.0000e+00 -1.0000e+00
       21 -1    0    0  501  502 -0.0000000000e+00 -0.0000000000e+00 -5.7205307843e+01 5.7205307843e+01 0.0000000000e+00 0.0000e+00 -1.0000e+00
       25  2    1    2    0    0 +0.0000000000e+00 +0.0000000000e+00 +1.1079439627e+01 1.2549005531e+02 1.2500000000e+02 0.0000e+00 0.0000e+00
      -15  1    3    3    0    0 -3.0032017514e+01 -3.0054725079e+01 -4.0442507167e+01 5.8685285128e+01 1.7770000000e+00 0.0000e+00 -1.0000e+00
       15  1    3    3    0    0 +3.0032014772e+01 +3.0054720579e+01 +5.1521940775e+01 6.6804762184e+01 1.7770000000e+00 0.0000e+00 -1.0000e+00
       22  1    3    3    0    0 +2.7417397416e-06 +4.5005355216e-06 +6.0197814438e-06 8.0006078158e-06 0.0000000000e+00 0.0000e+00 -1.0000e+00
<mgrwt>
<rscale>  2 0.12500000E+03</rscale>
<asrwt>0</asrwt>
<pdfrwt beam="1">  1       21 0.10041875E-01 0.12500000E+03</pdfrwt>
<pdfrwt beam="2">  1       21 0.84125452E-02 0.12500000E+03</pdfrwt>
<totfact> 0.88905296E+06</totfact>
</mgrwt>
</event>
<event>
 6      0 +1.3698540e+00 1.25000000e+02 7.54677100e-03 1.12640300e-01
       21 -1    0    0  502  501 +0.0000000000e+00 +0.0000000000e+00 +1.2105570951e+01 1.2105570951e+01 0.0000000000e+00 0.0000e+00 -1.0000e+00
       21 -1    0    0  501  502 -0.0000000000e+00 -0.0000000000e+00 -3.2268201275e+02 3.2268201275e+02 0.0000000000e+00 0.0000e+00 -1.0000e+00
       25  2    1    2    0    0 +0.0000000000e+00 +0.0000000000e+00 -3.1057644180e+02 3.3478758370e+02 1.2500000000e+02 0.0000e+00 0.0000e+00
      -15  1    3    3    0    0 +7.9053451777e+00 +1.6882643584e+01 -3.5550860387e+00 1.9060810647e+01 1.7770000000e+00 0.0000e+00 -1.0000e+00
       15  1    3    3    0    0 -1.6217394428e+01 +2.0481819220e+01 -5.6192953539e+01 6.1994471988e+01 1.7770000000e+00 0.0000e+00 -1.0000e+00
       22  1    3    3    0    0 +8.3120492503e+00 -3.7364462804e+01 -2.5082840224e+02 2.5373230108e+02 0.0000000000e+00 0.0000e+00 -1.0000e+00
<mgrwt>
<rscale>  2 0.12500000E+03</rscale>
<asrwt>0</asrwt>
<pdfrwt beam="1">  1       21 0.17802309E-02 0.12500000E+03</pdfrwt>
<pdfrwt beam="2">  1       21 0.47453240E-01 0.12500000E+03</pdfrwt>
<totfact> 0.60113435E+06</totfact>
</mgrwt>
</event>
<event>
 6      0 +1.3698540e+00 1.25000000e+02 7.54677100e-03 1.12640300e-01
       21 -1    0    0  502  501 +0.0000000000e+00 +0.0000000000e+00 +8.4983306876e+00 8.4983306876e+00 0.0000000000e+00 0.0000e+00 -1.0000e+00
       21 -1    0    0  501  502 -0.0000000000e+00 -0.0000000000e+00 -4.5964909387e+02 4.5964909387e+02 0.0000000000e+00 0.0000e+00 -1.0000e+00
       25  2    1    2    0    0 +0.0000000000e+00 +0.0000000000e+00 -4.5115076319e+02 4.6814742456e+02 1.2500000000e+02 0.0000e+00 0.0000e+00
      -15  1    3    3    0    0 +1.0381332343e+01 -3.8283409189e+01 -1.3682974638e+02 1.4247430892e+02 1.7770000000e+00 0.0000e+00 -1.0000e+00
       15  1    3    3    0    0 +2.5259375119e+01 +3.0764378512e+01 -9.0163137537e+01 9.8575007564e+01 1.7770000000e+00 0.0000e+00 -1.0000e+00
       22  1    3    3    0    0 -3.5640707462e+01 +7.5190306767e+00 -2.2415787934e+02 2.2709810814e+02 0.0000000000e+00 0.0000e+00 -1.0000e+00
<mgrwt>
<rscale>  2 0.12500000E+03</rscale>
<asrwt>0</asrwt>
<pdfrwt beam="1">  1       21 0.12497539E-02 0.12500000E+03</pdfrwt>
<pdfrwt beam="2">  1       21 0.67595487E-01 0.12500000E+03</pdfrwt>
<totfact> 0.47792693E+06</totfact>
</mgrwt>
</event>
<event>
 6      0 +1.3698540e+00 1.25000000e+02 7.54677100e-03 1.12640300e-01
       21 -1    0    0  502  501 +0.0000000000e+00 +0.0000000000e+00 +4.9648729913e+01 4.9648729913e+01 0.0000000000e+00 0.0000e+00 -1.0000e+00
       21 -1    0    0  501  502 -0.0000000000e+00 -0.0000000000e+00 -7.8677742750e+01 7.8677742750e+01 0.0000000000e+00 0.0000e+00 -1.0000e+00
       25  2    1    2    0    0 +0.0000000000e+00 +0.0000000000e+00 -2.9029012837e+01 1.2832647266e+02 1.2500000000e+02 0.0000e+00 0.0000e+00
      -15  1    3    3    0    0 +2.7930746068e+01 +3.0506720355e+01 -3.7625114543e+01 5.5942770187e+01 1.7770000000e+00 0.0000e+00 -1.0000e+00
       15  1    3    3    0    0 -1.6025212666e+01 -2.7552086712e+01 +3.2475221506e+01 4.5538145154e+01 1.7770000000e+00 0.0000e+00 -1.0000e+00
       22  1    3    3    0    0 -1.1905533402e+01 -2.9546336433e+00 -2.3879119800e+01 2.6845557323e+01 0.0000000000e+00 0.0000e+00 -1.0000e+00
<mgrwt>
<rscale>  2 0.12500000E+03</rscale>
<asrwt>0</asrwt>
<pdfrwt beam="1">  1       21 0.73012839E-02 0.12500000E+03</pdfrwt>
<pdfrwt beam="2">  1       21 0.11570256E-01 0.12500000E+03</pdfrwt>
<totfact> 0.88399863E+06</totfact>
</mgrwt>
</event>
<event>
 6      0 +1.3698540e+00 1.25000000e+02 7.54677100e-03 1.12640300e-01
       21 -1    0    0  502  501 +0.0000000000e+00 +0.0000000000e+00 +3.5640040731e+02 3.5640040731e+02 0.0000000000e+00 0.0000e+00 1.0000e+00
       21 -1    0    0  501  502 -0.0000000000e+00 -0.0000000000e+00 -1.0960284893e+01 1.0960284893e+01 0.0000000000e+00 0.0000e+00 1.0000e+00
       25  2    1    2    0    0 +0.0000000000e+00 +0.0000000000e+00 +3.4544012241e+02 3.6736069220e+02 1.2500000000e+02 0.0000e+00 0.0000e+00
      -15  1    3    3    0    0 -2.1520644282e+00 -1.7672826899e+01 +2.6773357948e+01 3.2201407062e+01 1.7770000000e+00 0.0000e+00 -1.0000e+00
       15  1    3    3    0    0 -4.6074962080e+01 -5.3043239036e+00 +1.0299189372e+02 1.1296692385e+02 1.7770000000e+00 0.0000e+00 -1.0000e+00
       22  1    3    3    0    0 +4.8227026508e+01 +2.2977150803e+01 +2.1567487071e+02 2.2219236126e+02 0.0000000000e+00 0.0000e+00 -1.0000e+00
<mgrwt>
<rscale>  2 0.12500000E+03</rscale>
<asrwt>0</asrwt>
<pdfrwt beam="1">  1       21 0.52411817E-01 0.12500000E+03</pdfrwt>
<pdfrwt beam="2">  1       21 0.16118068E-02 0.12500000E+03</pdfrwt>
<totfact> 0.56780812E+06</totfact>
</mgrwt>
</event>
<event>
 6      0 +1.3698540e+00 1.25000000e+02 7.54677100e-03 1.12640300e-01
       21 -1    0    0  502  501 +0.0000000000e+00 +0.0000000000e+00 +6.7097016463e+02 6.7097016463e+02 0.0000000000e+00 0.0000e+00 -1.0000e+00
       21 -1    0    0  501  502 -0.0000000000e+00 -0.0000000000e+00 -5.8217938828e+00 5.8217938828e+00 0.0000000000e+00 0.0000e+00 -1.0000e+00
       25  2    1    2    0    0 +0.0000000000e+00 +0.0000000000e+00 +6.6514837075e+02 6.7679195852e+02 1.2500000000e+02 0.0000e+00 0.0000e+00
      -15  1    3    3    0    0 -4.8996992511e+01 -1.0635417185e+00 +5.4235572744e+02 5.4456838801e+02 1.7770000000e+00 0.0000e+00 1.0000e+00
       15  1    3    3    0    0 +4.8997103536e+01 +1.0634906203e+00 +1.2279087593e+02 1.3222179891e+02 1.7770000000e+00 0.0000e+00 1.0000e+00
       22  1    3    3    0    0 -1.1102481659e-04 +5.1098178402e-05 +1.7672584113e-03 1.7714795584e-03 0.0000000000e+00 0.0000e+00 1.0000e+00
<mgrwt>
<rscale>  2 0.12500000E+03</rscale>
<asrwt>0</asrwt>
<pdfrwt beam="1">  1       21 0.98672030E-01 0.12500000E+03</pdfrwt>
<pdfrwt beam="2">  1       21 0.85614662E-03 0.12500000E+03</pdfrwt>
<totfact> 0.34116351E+06</totfact>
</mgrwt>
</event>
<event>
 6      0 +1.3698540e+00 1.25000000e+02 7.54677100e-03 1.12640300e-01
       21 -1    0    0  502  501 +0.0000000000e+00 +0.0000000000e+00 +2.5024211677e+02 2.5024211677e+02 0.0000000000e+00 0.0000e+00 -1.0000e+00
       21 -1    0    0  501  502 -0.0000000000e+00 -0.0000000000e+00 -1.5609882343e+01 1.5609882343e+01 0.0000000000e+00 0.0000e+00 -1.0000e+00
       25  2    1    2    0    0 +0.0000000000e+00 +0.0000000000e+00 +2.3463223443e+02 2.6585199911e+02 1.2500000000e+02 0.0000e+00 0.0000e+00
      -15  1    3    3    0    0 +1.2862251104e+01 +2.6768977655e+01 +9.7819862291e+00 3.1318694923e+01 1.7770000000e+00 0.0000e+00 -1.0000e+00
       15  1    3    3    0    0 +4.0823345577e+00 +6.1693115102e+00 +1.0403807557e+00 7.6789309853e+00 1.7770000000e+00 0.0000e+00 -1.0000e+00
       22  1    3    3    0    0 -1.6944585661e+01 -3.2938289165e+01 +2.2380986747e+02 2.2685437323e+02 0.0000000000e+00 0.0000e+00 -1.0000e+00
<mgrwt>
<rscale>  2 0.12500000E+03</rscale>
<asrwt>0</asrwt>
<pdfrwt beam="1">  1       21 0.36800309E-01 0.12500000E+03</pdfrwt>
<pdfrwt beam="2">  1       21 0.22955711E-02 0.12500000E+03</pdfrwt>
<totfact> 0.68007439E+06</totfact>
</mgrwt>
</event>
<event>
 6      0 +1.3698540e+00 1.25000000e+02 7.54677100e-03 1.12640300e-01
       21 -1    0    0  502  501 +0.0000000000e+00 +0.0000000000e+00 +2.6940665893e+02 2.6940665893e+02 0.0000000000e+00 0.0000e+00 1.0000e+00
       21 -1    0    0  501  502 -0.0000000000e+00 -0.0000000000e+00 -1.4499456010e+01 1.4499456010e+01 0.0000000000e+00 0.0000e+00 1.0000e+00
       25  2    1    2    0    0 +0.0000000000e+00 +0.0000000000e+00 +2.5490720292e+02 2.8390611494e+02 1.2500000000e+02 0.0000e+00 0.0000e+00
      -15  1    3    3    0    0 +5.8600796372e+01 -7.1158751428e+00 +1.7391141272e+02 1.8366552812e+02 1.7770000000e+00 0.0000e+00 -1.0000e+00
       15  1    3    3    0    0 -5.8600834185e+01 +7.1158695647e+00 +8.0995659731e+01 1.0024045087e+02 1.7770000000e+00 0.0000e+00 -1.0000e+00
       22  1    3    3    0    0 +3.7813201835e-05 +5.5781488077e-06 +1.3046937855e-04 1.3595297980e-04 0.0000000000e+00 0.0000e+00 1.0000e+00
<mgrwt>
<rscale>  2 0.12500000E+03</rscale>
<asrwt>0</asrwt>
<pdfrwt beam="1">  1       21 0.39618623E-01 0.12500000E+03</pdfrwt>
<pdfrwt beam="2">  1       21 0.21322731E-02 0.12500000E+03</pdfrwt>
<totfact> 0.65827137E+06</totfact>
</mgrwt>
</event>
<event>
 6      0 +1.3698540e+00 1.25000000e+02 7.54677100e-03 1.12640300e-01
       21 -1    0    0  502  501 +0.0000000000e+00 +0.0000000000e+00 +1.3334183539e+02 1.3334183539e+02 0.0000000000e+00 0.0000e+00 -1.0000e+00
       21 -1    0    0  501  502 -0.0000000000e+00 -0.0000000000e+00 -2.9295006991e+01 2.9295006991e+01 0.0000000000e+00 0.0000e+00 -1.0000e+00
       25  2    1    2    0    0 +0.0000000000e+00 +0.0000000000e+00 +1.0404682840e+02 1.6263684238e+02 1.2500000000e+02 0.0000e+00 0.0000e+00
      -15  1    3    3    0    0 +1.7574332490e+01 -2.3527916885e+00 +1.4053947220e+01 2.2695020438e+01 1.7770000000e+00 0.0000e+00 -1.0000e+00
       15  1    3    3    0    0 +3.3065648402e+01 -3.1623521487e+01 +4.4605413977e+01 6.3923273544e+01 1.7770000000e+00 0.0000e+00 -1.0000e+00
       22  1    3    3    0    0 -5.0639980893e+01 +3.3976313176e+01 +4.5387467205e+01 7.6018548402e+01 0.0000000000e+00 0.0000e+00 -1.0000e+00
<mgrwt>
<rscale>  2 0.12500000E+03</rscale>
<asrwt>0</asrwt>
<pdfrwt beam="1">  1       21 0.19609093E-01 0.12500000E+03</pdfrwt>
<pdfrwt beam="2">  1       21 0.43080893E-02 0.12500000E+03</pdfrwt>
<totfact> 0.82549799E+06</totfact>
</mgrwt>
</event>
<event>
 6      0 +1.3698540e+00 1.25000000e+02 7.54677100e-03 1.12640300e-01
       21 -1    0    0  502  501 +0.0000000000e+00 +0.0000000000e+00 +4.0665265631e+02 4.0665265631e+02 0.0000000000e+00 0.0000e+00 -1.0000e+00
       21 -1    0    0  501  502 -0.0000000000e+00 -0.0000000000e+00 -9.6058637252e+00 9.6058637252e+00 0.0000000000e+00 0.0000e+00 -1.0000e+00
       25  2    1    2    0    0 +0.0000000000e+00 +0.0000000000e+00 +3.9704679258e+02 4.1625852003e+02 1.2500000000e+02 0.0000e+00 0.0000e+00
      -15  1    3    3    0    0 +1.6930072833e+01 -2.4121961030e+01 +6.0339358456e+01 6.7175086736e+01 1.7770000000e+00 0.0000e+00 -1.0000e+00
       15  1    3    3    0    0 +1.3963920235e+01 -2.3351224369e+01 +5.1155106045e+01 5.7967864816e+01 1.7770000000e+00 0.0000e+00 -1.0000e+00
       22  1    3    3    0    0 -3.0893993068e+01 +4.7473185399e+01 +2.8555232809e+02 2.9111556849e+02 0.0000000000e+00 0.0000e+00 -1.0000e+00
<mgrwt>
<rscale>  2 0.12500000E+03</rscale>
<asrwt>0</asrwt>
<pdfrwt beam="1">  1       21 0.59801850E-01 0.12500000E+03</pdfrwt>
<pdfrwt beam="2">  1       21 0.14126273E-02 0.12500000E+03</pdfrwt>
<totfact> 0.52180302E+06</totfact>
</mgrwt>
</event>
<event>
 6      0 +1.3698540e+00 1.25000000e+02 7.54677100e-03 1.12640300e-01
       21 -1    0    0  502  501 +0.0000000000e+00 +0.0000000000e+00 +7.4611204667e+01 7.4611204667e+01 0.0000000000e+00 0.0000e+00 -1.0000e+00
       21 -1    0    0  501  502 -0.0000000000e+00 -0.0000000000e+00 -5.2354737032e+01 5.2354737032e+01 0.0000000000e+00 0.0000e+00 -1.0000e+00
       25  2    1    2    0    0 +0.0000000000e+00 +0.0000000000e+00 +2.2256467635e+01 1.2696594170e+02 1.2500000000e+02 0.0000e+00 0.0000e+00
      -15  1    3    3    0    0 -1.3807974535e+01 -6.0326704858e+01 +2.4426773332e+00 6.1960438033e+01 1.7770000000e+00 0.0000e+00 1.0000e+00
       15  1    3    3    0    0 +1.3807972309e+01 +6.0326698537e+01 +1.9813787269e+01 6.5005496312e+01 1.7770000000e+00 0.0000e+00 1.0000e+00
       22  1    3    3    0    0 +2.2258613039e-06 +6.3200305025e-06 +3.0323025633e-06 7.3547333692e-06 0.0000000000e+00 0.0000e+00 1.0000e+00
<mgrwt>
<rscale>  2 0.12500000E+03</rscale>
<asrwt>0</asrwt>
<pdfrwt beam="1">  1       21 0.10972236E-01 0.12500000E+03</pdfrwt>
<pdfrwt beam="2">  1       21 0.76992260E-02 0.12500000E+03</pdfrwt>
<totfact> 0.88639466E+06</totfact>
</mgrwt>
</event>
<event>
 6      0 +1.3698540e+00 1.25000000e+02 7.54677100e-03 1.12640300e-01
       21 -1    0    0  502  501 +0.0000000000e+00 +0.0000000000e+00 +2.2466172746e+02 2.2466172746e+02 0.0000000000e+00 0.0000e+00 -1.0000e+00
       21 -1    0    0  501  502 -0.0000000000e+00 -0.0000000000e+00 -1.7387251688e+01 1.7387251688e+01 0.0000000000e+00 0.0000e+00 -1.0000e+00
       25  2    1    2    0    0 +0.0000000000e+00 +0.0000000000e+00 +2.0727447577e+02 2.4204897915e+02 1.2500000000e+02 0.0000e+00 0.0000e+00
      -15  1    3    3    0    0 -4.2569446439e+01 +2.5527968655e+01 +4.0411503231e+01 6.4031884839e+01 1.7770000000e+00 0.0000e+00 -1.0000e+00
       15  1    3    3    0    0 -1.9739006540e+00 -7.8862974526e+00 +6.4062549797e+01 6.4600758407e+01 1.7770000000e+00 0.0000e+00 -1.0000e+00
       22  1    3    3    0    0 +4.4543347093e+01 -1.7641671202e+01 +1.0280042273e+02 1.1341633589e+02 0.0000000000e+00 0.0000e+00 -1.0000e+00
<mgrwt>
<rscale>  2 0.12500000E+03</rscale>
<asrwt>0</asrwt>
<pdfrwt beam="1">  1       21 0.33038488E-01 0.12500000E+03</pdfrwt>
<pdfrwt beam="2">  1       21 0.25569489E-02 0.12500000E+03</pdfrwt>
<totfact> 0.71036585E+06</totfact>
</mgrwt>
</event>
<event>
 6      0 +1.3698540e+00 1.25000000e+02 7.54677100e-03 1.12640300e-01
       21 -1    0    0  502  501 +0.0000000000e+00 +0.0000000000e+00 +3.4138901301e+01 3.4138901301e+01 0.0000000000e+00 0.0000e+00 -1.0000e+00
       21 -1    0    0  501  502 -0.0000000000e+00 -0.0000000000e+00 -1.1442225295e+02 1.1442225295e+02 0.0000000000e+00 0.0000e+00 -1.0000e+00
       25  2    1    2    0    0 +0.0000000000e+00 +0.0000000000e+00 -8.0283351645e+01 1.4856115425e+02 1.2500000000e+02 0.0000e+00 0.0000e+00
      -15  1    3    3    0    0 +3.1014775857e+01 -4.7124942340e+01 -7.1891165175e+01 9.1401169967e+01 1.7770000000e+00 0.0000e+00 1.0000e+00
       15  1    3    3    0    0 -2.4405319722e+01 +3.7633040154e+01 -5.3985089431e+00 4.5212464761e+01 1.7770000000e+00 0.0000e+00 1.0000e+00
       22  1    3    3    0    0 -6.6094561350e+00 +9.4919021865e+00 -2.9936775246e+00 1.1947519518e+01 0.0000000000e+00 0.0000e+00 1.0000e+00
<mgrwt>
<rscale>  2 0.12500000E+03</rscale>
<asrwt>0</asrwt>
<pdfrwt beam="1">  1       21 0.50204267E-02 0.12500000E+03</pdfrwt>
<pdfrwt beam="2">  1       21 0.16826802E-01 0.12500000E+03</pdfrwt>
<totfact> 0.84867560E+06</totfact>
</mgrwt>
</event>
<event>
 6      0 +1.3698540e+00 1.25000000e+02 7.54677100e-03 1.12640300e-01
       21 -1    0    0  502  501 +0.0000000000e+00 +0.0000000000e+00 +3.5849489387e+01 3.5849489387e+01 0.0000000000e+00 0.0000e+00 1.0000e+00
       21 -1    0    0  501  502 -0.0000000000e+00 -0.0000000000e+00 -1.0896250035e+02 1.0896250035e+02 0.0000000000e+00 0.0000e+00 1.0000e+00
       25  2    1    2    0    0 +0.0000000000e+00 +0.0000000000e+00 -7.3113010965e+01 1.4481198974e+02 1.2500000000e+02 0.0000e+00 0.0000e+00
      -15  1    3    3    0    0 +1.2210056147e+01 -2.6658205263e+01 -1.5283683412e+01 3.3113352090e+01 1.7770000000e+00 0.0000e+00 -1.0000e+00
       15  1    3    3    0    0 +5.8811627216e+00 -3.2614133590e+01 -1.5351667510e+01 3.6566394533e+01 1.7770000000e+00 0.0000e+00 -1.0000e+00
       22  1    3    3    0    0 -1.8091218868e+01 +5.9272338853e+01 -4.2477660042e+01 7.5132243117e+01 0.0000000000e+00 0.0000e+00 -1.0000e+00
<mgrwt>
<rscale>  2 0.12500000E+03</rscale>
<asrwt>0</asrwt>
<pdfrwt beam="1">  1       21 0.52719837E-02 0.12500000E+03</pdfrwt>
<pdfrwt beam="2">  1       21 0.16023897E-01 0.12500000E+03</pdfrwt>
<totfact> 0.85506608E+06</totfact>
</mgrwt>
</event>
<event>
 6      0 +1.3698540e+00 1.25000000e+02 7.54677100e-03 1.12640300e-01
       21 -1    0    0  502  501 +0.0000000000e+00 +0.0000000000e+00 +5.5413778902e+02 5.5413778902e+02 0.0000000000e+00 0.0000e+00 1.0000e+00
       21 -1    0    0  501  502 -0.0000000000e+00 -0.0000000000e+00 -7.0492395165e+00 7.0492395165e+00 0.0000000000e+00 0.0000e+00 1.0000e+00
       25  2    1    2    0    0 +0.0000000000e+00 +0.0000000000e+00 +5.4708854951e+02 5.6118702854e+02 1.2500000000e+02 0.0000e+00 0.0000e+00
      -15  1    3    3    0    0 -2.3963443542e+01 +4.7115490895e+00 +1.8895107017e+02 1.9053112599e+02 1.7770000000e+00 0.0000e+00 -1.0000e+00
       15  1    3    3    0    0 -1.2257080255e+01 +2.4732899663e+01 +2.6535777451e+02 2.6679553700e+02 1.7770000000e+00 0.0000e+00 -1.0000e+00
       22  1    3    3    0    0 +3.6220523797e+01 -2.9444448753e+01 +9.2779704893e+01 1.0386036562e+02 0.0000000000e+00 0.0000e+00 -1.0000e+00
<mgrwt>
<rscale>  2 0.12500000E+03</rscale>
<asrwt>0</asrwt>
<pdfrwt beam="1">  1       21 0.81490822E-01 0.12500000E+03</pdfrwt>
<pdfrwt beam="2">  1       21 0.10366532E-02 0.12500000E+03</pdfrwt>
<totfact> 0.41046241E+06</totfact>
</mgrwt>
</event>
<event>
 6      0 +1.3698540e+00 1.25000000e+02 7.54677100e-03 1.12640300e-01
       21 -1    0    0  502  501 +0.0000000000e+00 +0.0000000000e+00 +1.8645627269e+02 1.8645627269e+02 0.0000000000e+00 0.0000e+00 1.0000e+00
       21 -1    0    0  501  502 -0.0000000000e+00 -0.0000000000e+00 -2.0949952199e+01 2.0949952199e+01 0.0000000000e+00 0.0000e+00 1.0000e+00
       25  2    1    2    0    0 +0.0000000000e+00 +0.0000000000e+00 +1.6550632049e+02 2.0740622488e+02 1.2500000000e+02 0.0000e+00 0.0000e+00
      -15  1    3    3    0    0 -5.1750576927e+01 +8.7057959330e+00 +7.6154419798e+01 9.2501710681e+01 1.7770000000e+00 0.0000e+00 -1.0000e+00
       15  1    3    3    0    0 +1.8238124429e+01 -1.5508272067e+01 +5.9034119422e+00 2.4721320490e+01 1.7770000000e+00 0.0000e+00 -1.0000e+00
       22  1    3    3    0    0 +3.3512452498e+01 +6.8024761343e+00 +8.3448488766e+01 9.0183193730e+01 0.0000000000e+00 0.0000e+00 -1.0000e+00
<mgrwt>
<rscale>  2 0.12500000E+03</rscale>
<asrwt>0</asrwt>
<pdfrwt beam="1">  1       21 0.27420039E-01 0.12500000E+03</pdfrwt>
<pdfrwt beam="2">  1       21 0.30808754E-02 0.12500000E+03</pdfrwt>
<totfact> 0.75751897E+06</totfact>
</mgrwt>
</event>
<event>
 6      0 +1.3698540e+00 1.25000000e+02 7.54677100e-03 1.12640300e-01
       21 -1    0    0  502  501 +0.0000000000e+00 +0.0000000000e+00 +1.2582320272e+02 1.2582320272e+02 0.0000000000e+00 0.0000e+00 1.0000e+00
       21 -1    0    0  501  502 -0.0000000000e+00 -0.0000000000e+00 -3.1045545778e+01 3.1045545778e+01 0.0000000000e+00 0.0000e+00 1.0000e+00
       25  2    1    2    0    0 +0.0000000000e+00 +0.0000000000e+00 +9.4777656941e+01 1.5686874850e+02 1.2500000000e+02 0.0000e+00 0.0000e+00
      -15  1    3    3    0    0 +5.6638402552e+00 -3.6984101625e+01 +4.0255441778e+01 5.4986918273e+01 1.7770000000e+00 0.0000e+00 -1.0000e+00
       15  1    3    3    0    0 -5.5170979585e+00 -1.4848710461e+01 -1.0229059073e+01 1.8939745266e+01 1.7770000000e+00 0.0000e+00 -1.0000e+00
       22  1    3    3    0    0 -1.4674229666e-01 +5.1832812086e+01 +6.4751274235e+01 8.2942084957e+01 0.0000000000e+00 0.0000e+00 -1.0000e+00
<mgrwt>
<rscale>  2 0.12500000E+03</rscale>
<asrwt>0</asrwt>
<pdfrwt beam="1">  1       21 0.18503412E-01 0.12500000E+03</pdfrwt>
<pdfrwt beam="2">  1       21 0.45655215E-02 0.12500000E+03</pdfrwt>
<totfact> 0.83489162E+06</totfact>
</mgrwt>
</event>
<event>
 6      0 +1.3698540e+00 1.25000000e+02 7.54677100e-03 1.12640300e-01
       21 -1    0    0  502  501 +0.0000000000e+00 +0.0000000000e+00 +5.0460082333e+00 5.0460082333e+00 0.0000000000e+00 0.0000e+00 -1.0000e+00
       21 -1    0    0  501  502 -0.0000000000e+00 -0.0000000000e+00 -7.7412675910e+02 7.7412675910e+02 0.0000000000e+00 0.0000e+00 -1.0000e+00
       25  2    1    2    0    0 +0.0000000000e+00 +0.0000000000e+00 -7.6908075087e+02 7.7917276733e+02 1.2500000000e+02 0.0000e+00 0.0000e+00
      -15  1    3    3    0    0 -1.5657463207e+00 +6.1783469677e+01 -3.2760004337e+02 3.3338355513e+02 1.7770000000e+00 0.0000e+00 -1.0000e+00
       15  1    3    3    0    0 +1.5657446998e+00 -6.1783469210e+01 -4.4148070216e+02 4.4578920661e+02 1.7770000000e+00 0.0000e+00 -1.0000e+00
       22  1    3    3    0    0 +1.6209128712e-06 -4.6769515872e-07 -5.5930044985e-06 5.8419000862e-06 0.0000000000e+00 0.0000e+00 -1.0000e+00
<mgrwt>
<rscale>  2 0.12500000E+03</rscale>
<asrwt>0</asrwt>
<pdfrwt beam="1">  1       21 0.74206061E-03 0.12500000E+03</pdfrwt>
<pdfrwt beam="2">  1       21 0.11384208E+00 0.12500000E+03</pdfrwt>
<totfact> 0.29178117E+06</totfact>
</mgrwt>
</event>
<event>
 6      0 +1.3698540e+00 1.25000000e+02 7.54677100e-03 1.12640300e-01
       21 -1    0    0  502  501 +0.0000000000e+00 +0.0000000000e+00 +3.6660276136e+01 3.6660276136e+01 0.0000000000e+00 0.0000e+00 -1.0000e+00
       21 -1    0    0  501  502 -0.0000000000e+00 -0.0000000000e+00 -1.0655266167e+02 1.0655266167e+02 0.0000000000e+00 0.0000e+00 -1.0000e+00
       25  2    1    2    0    0 +0.0000000000e+00 +0.0000000000e+00 -6.9892385537e+01 1.4321293781e+02 1.2500000000e+02 0.0000e+00 0.0000e+00
      -15  1    3    3    0    0 -1.4971275494e+00 +1.2389818629e+01 -1.5901835291e+01 2.0292242143e+01 1.7770000000e+00 0.0000e+00 -1.0000e+00
       15  1    3    3    0    0 -2.4813745323e+01 -2.3573184352e+01 -7.8249879854e+01 8.5426099078e+01 1.7770000000e+00 0.0000e+00 -1.0000e+00
       22  1    3    3    0    0 +2.6310872873e+01 +1.1183365723e+01 +2.4259329609e+01 3.7494596588e+01 0.0000000000e+00 0.0000e+00 -1.0000e+00
<mgrwt>
<rscale>  2 0.12500000E+03</rscale>
<asrwt>0</asrwt>
<pdfrwt beam="1">  1       21 0.53912169E-02 0.12500000E+03</pdfrwt>
<pdfrwt beam="2">  1       21 0.15669510E-01 0.12500000E+03</pdfrwt>
<totfact> 0.85783172E+06</totfact>
</mgrwt>
</event>
<event>
 6      0 +1.3698540e+00 1.25000000e+02 7.54677100e-03 1.12640300e-01
       21 -1    0    0  502  501 +0.0000000000e+00 +0.0000000000e+00 +7.8139553485e+01 7.8139553485e+01 0.0000000000e+00 0.0000e+00 1.0000e+00
       21 -1    0    0  501  502 -0.0000000000e+00 -0.0000000000e+00 -4.9990687504e+01 4.9990687504e+01 0.0000000000e+00 0.0000e+00 1.0000e+00
       25  2    1    2    0    0 +0.0000000000e+00 +0.0000000000e+00 +2.8148865981e+01 1.2813024099e+02 1.2500000000e+02 0.0000e+00 0.0000e+00
      -15  1    3    3    0    0 +4.5685548976e+01 +3.9592110785e+01 -1.9873021422e+00 6.0512905405e+01 1.7770000000e+00 0.0000e+00 1.0000e+00
       15  1    3    3    0    0 -4.5367074550e+01 -3.8989322050e+01 +2.9724990337e+01 6.6821190252e+01 1.7770000000e+00 0.0000e+00 1.0000e+00
       22  1    3    3    0    0 -3.1847442618e-01 -6.0278873534e-01 +4.1117778536e-01 7.9614533268e-01 0.0000000000e+00 0.0000e+00 1.0000e+00
<mgrwt>
<rscale>  2 0.12500000E+03</rscale>
<asrwt>0</asrwt>
<pdfrwt beam="1">  1       21 0.11491111E-01 0.12500000E+03</pdfrwt>
<pdfrwt beam="2">  1       21 0.73515717E-02 0.12500000E+03</pdfrwt>
<totfact> 0.88434670E+06</totfact>
</mgrwt>
</event>
<event>
 6      0 +1.3698540e+00 1.25000000e+02 7.54677100e-03 1.12640300e-01
       21 -1    0    0  502  501 +0.0000000000e+00 +0.0000000000e+00 +3.8501712774e+01 3.8501712774e+01 0.0000000000e+00 0.0000e+00 -1.0000e+00
       21 -1    0    0  501  502 -0.0000000000e+00 -0.0000000000e+00 -1.0145652540e+02 1.0145652540e+02 0.0000000000e+00 0.0000e+00 -1.0000e+00
       25  2    1    2    0    0 +0.0000000000e+00 +0.0000000000e+00 -6.2954812628e+01 1.3995823817e+02 1.2500000000e+02 0.0000e+00 0.0000e+00
      -15  1    3    3    0    0 +2.4496684839e+01 +1.8260683758e+01 -3.1626338813e+01 4.4010489376e+01 1.7770000000e+00 0.0000e+00 -1.0000e+00
       15  1    3    3    0    0 -1.8033200600e+01 +2.0683460221e+01 -4.6198614791e+01 5.3763106200e+01 1.7770000000e+00 0.0000e+00 -1.0000e+00
       22  1    3    3    0    0 -6.4634842391e+00 -3.8944143979e+01 +1.4870140973e+01 4.2184642601e+01 0.0000000000e+00 0.0000e+00 -1.0000e+00
<mgrwt>
<rscale>  2 0.12500000E+03</rscale>
<asrwt>0</asrwt>
<pdfrwt beam="1">  1       21 0.56620167E-02 0.12500000E+03</pdfrwt>
<pdfrwt beam="2">  1       21 0.14920077E-01 0.12500000E+03</pdfrwt>
<totfact> 0.86347530E+06</totfact>
</mgrwt>
</event>
<event>
 6      0 +1.3698540e+00 1.25000000e+02 7.54677100e-03 1.12640300e-01
       21 -1    0    0  502  501 +0.0000000000e+00 +0.0000000000e+00 +1.5839124535e+02 1.5839124535e+02 0.0000000000e+00 0.0000e+00 1.0000e+00
       21 -1    0    0  501  502 -0.0000000000e+00 -0.0000000000e+00 -2.4662032244e+01 2.4662032244e+01 0.0000000000e+00 0.0000e+00 1.0000e+00
       25  2    1    2    0    0 +0.0000000000e+00 +0.0000000000e+00 +1.3372921311e+02 1.8305327759e+02 1.2500000000e+02 0.0000e+00 0.0000e+00
      -15  1    3    3    0    0 -1.9703635763e+01 +1.1517140571e+01 -5.3319157977e+00 2.3504570710e+01 1.7770000000e+00 0.0000e+00 -1.0000e+00
       15  1    3    3    0    0 +3.4771855727e+01 -2.8537909658e+01 +4.8479763524e+01 6.6158441931e+01 1.7770000000e+00 0.0000e+00 -1.0000e+00
       22  1    3    3    0    0 -1.5068219964e+01 +1.7020769087e+01 +9.0581365394e+01 9.3390264963e+01 0.0000000000e+00 0.0000e+00 -1.0000e+00
<mgrwt>
<rscale>  2 0.12500000E+03</rscale>
<asrwt>0</asrwt>
<pdfrwt beam="1">  1       21 0.23292830E-01 0.12500000E+03</pdfrwt>
<pdfrwt beam="2">  1       21 0.36267695E-02 0.12500000E+03</pdfrwt>
<totfact> 0.79341332E+06</totfact>
</mgrwt>
</event>
<event>
 6      0 +1.3698540e+00 1.25000000e+02 7.54677100e-03 1.12640300e-01
       21 -1    0    0  502  501 +0.0000000000e+00 +0.0000000000e+00 +1.0970637539e+02 1.0970637539e+02 0.0000000000e+00 0.0000e+00 1.0000e+00
       21 -1    0    0  501  502 -0.0000000000e+00 -0.0000000000e+00 -3.5606408344e+01 3.5606408344e+01 0.0000000000e+00 0.0000e+00 1.0000e+00
       25  2    1    2    0    0 +0.0000000000e+00 +0.0000000000e+00 +7.4099967043e+01 1.4531278373e+02 1.2500000000e+02 0.0000e+00 0.0000e+00
      -15  1    3    3    0    0 +1.7609685940e+01 -4.8352980215e+00 +3.8900244781e+00 1.8755563582e+01 1.7770000000e+00 0.0000e+00 -1.0000e+00
       15  1    3    3    0    0 -2.8849080066e+01 -2.1490972087e+01 -1.3208982832e+01 3.8363605910e+01 1.7770000000e+00 0.0000e+00 -1.0000e+00
       22  1    3    3    0    0 +1.1239394126e+01 +2.6326270109e+01 +8.3418925397e+01 8.8193614240e+01 0.0000000000e+00 0.0000e+00 -1.0000e+00
<mgrwt>
<rscale>  2 0.12500000E+03</rscale>
<asrwt>0</asrwt>
<pdfrwt beam="1">  1       21 0.16133290E-01 0.12500000E+03</pdfrwt>
<pdfrwt beam="2">  1       21 0.52362365E-02 0.12500000E+03</pdfrwt>
<totfact> 0.85420512E+06</totfact>
</mgrwt>
</event>
<event>
 6      0 +1.3698540e+00 1.25000000e+02 7.54677100e-03 1.12640300e-01
       21 -1    0    0  502  501 +0.0000000000e+00 +0.0000000000e+00 +1.3575646646e+02 1.3575646646e+02 0.0000000000e+00 0.0000e+00 1.0000e+00
       21 -1    0    0  501  502 -0.0000000000e+00 -0.0000000000e+00 -2.8773951635e+01 2.8773951635e+01 0.0000000000e+00 0.0000e+00 1.0000e+00
       25  2    1    2    0    0 +0.0000000000e+00 +0.0000000000e+00 +1.0698251482e+02 1.6453041809e+02 1.2500000000e+02 0.0000e+00 0.0000e+00
      -15  1    3    3    0    0 +3.8327480350e+01 +1.9189625923e+01 +9.1190625213e+01 1.0077760341e+02 1.7770000000e+00 0.0000e+00 -1.0000e+00
       15  1    3    3    0    0 +4.3150421417e+00 -1.8540155342e+01 +4.9368008569e+00 1.9745548371e+01 1.7770000000e+00 0.0000e+00 -1.0000e+00
       22  1    3    3    0    0 -4.2642522492e+01 -6.4947058128e-01 +1.0855088751e+01 4.4007266312e+01 0.0000000000e+00 0.0000e+00 -1.0000e+00
<mgrwt>
<rscale>  2 0.12500000E+03</rscale>
<asrwt>0</asrwt>
<pdfrwt beam="1">  1       21 0.19964186E-01 0.12500000E+03</pdfrwt>
<pdfrwt beam="2">  1       21 0.42314636E-02 0.12500000E+03</pdfrwt>
<totfact> 0.82242393E+06</totfact>
</mgrwt>
</event>
<event>
 6      0 +1.3698540e+00 1.25000000e+02 7.54677100e-03 1.12640300e-01
       21 -1    0    0  502  501 +0.0000000000e+00 +0.0000000000e+00 +7.8284212846e+01 7.8284212846e+01 0.0000000000e+00 0.0000e+00 1.0000e+00
       21 -1    0    0  501  502 -0.0000000000e+00 -0.0000000000e+00 -4.9898311013e+01 4.9898311013e+01 0.0000000000e+00 0.0000e+00 1.0000e+00
       25  2    1    2    0    0 +0.0000000000e+00 +0.0000000000e+00 +2.8385901833e+01 1.2818252386e+02 1.2500000000e+02 0.0000e+00 0.0000e+00
      -15  1    3    3    0    0 -1.7256767628e+01 +2.1532181477e+01 +3.7384966661e+01 4.6499723972e+01 1.7770000000e+00 0.0000e+00 -1.0000e+00
       15  1    3    3    0    0 -7.7055612733e+00 +2.2984862047e+01 +1.1237682084e+01 2.6779148334e+01 1.7770000000e+00 0.0000e+00 -1.0000e+00
       22  1    3    3    0    0 +2.4962328901e+01 -4.4517043524e+01 -2.0236746913e+01 5.4903651554e+01 0.0000000000e+00 0.0000e+00 -1.0000e+00
<mgrwt>
<rscale>  2 0.12500000E+03</rscale>
<asrwt>0</asrwt>
<pdfrwt beam="1">  1       21 0.11512384E-01 0.12500000E+03</pdfrwt>
<pdfrwt beam="2">  1       21 0.73379869E-02 0.12500000E+03</pdfrwt>
<totfact> 0.88425412E+06</totfact>
</mgrwt>
</event>
<event>
 6      0 +1.3698540e+00 1.25000000e+02 7.54677100e-03 1.12640300e-01
       21 -1    0    0  502  501 +0.0000000000e+00 +0.0000000000e+00 +1.8308347955e+02 1.8308347955e+02 0.0000000000e+00 0.0000e+00 1.0000e+00
       21 -1    0    0  501  502 -0.0000000000e+00 -0.0000000000e+00 -2.1335895569e+01 2.1335895569e+01 0.0000000000e+00 0.0000e+00 1.0000e+00
       25  2    1    2    0    0 +0.0000000000e+00 +0.0000000000e+00 +1.6174758398e+02 2.0441937512e+02 1.2500000000e+02 0.0000e+00 0.0000e+00
      -15  1    3    3    0    0 +8.8367448557e+00 +3.9895721322e+01 +6.7668240454e+01 7.9068989715e+01 1.7770000000e+00 0.0000e+00 -1.0000e+00
       15  1    3    3    0    0 +8.6004146834e+00 +1.9834272019e+00 +7.5975505625e+01 7.6507099672e+01 1.7770000000e+00 0.0000e+00 -1.0000e+00
       22  1    3    3    0    0 -1.7437159539e+01 -4.1879148524e+01 +1.8103837894e+01 4.8843285725e+01 0.0000000000e+00 0.0000e+00 -1.0000e+00
<mgrwt>
<rscale>  2 0.12500000E+03</rscale>
<asrwt>0</asrwt>
<pdfrwt beam="1">  1       21 0.26924040E-01 0.12500000E+03</pdfrwt>
<pdfrwt beam="2">  1       21 0.31376318E-02 0.12500000E+03</pdfrwt>
<totfact> 0.76178987E+06</totfact>
</mgrwt>
</event>
<event>
 6      0 +1.3698540e+00 1.25000000e+02 7.54677100e-03 1.12640300e-01
       21 -1    0    0  502  501 +0.0000000000e+00 +0.0000000000e+00 +3.9798169061e+01 3.9798169061e+01 0.0000000000e+00 0.0000e+00 -1.0000e+00
       21 -1    0    0  501  502 -0.0000000000e+00 -0.0000000000e+00 -9.8151500237e+01 9.8151500237e+01 0.0000000000e+00 0.0000e+00 -1.0000e+00
       25  2    1    2    0    0 +0.0000000000e+00 +0.0000000000e+00 -5.8353331176e+01 1.3794966930e+02 1.2500000000e+02 0.0000e+00 0.0000e+00
      -15  1    3    3    0    0 +1.4653294593e+01 -2.2855013261e+01 -9.1271859404e+01 9.5240646373e+01 1.7770000000e+00 0.0000e+00 -1.0000e+00
       15  1    3    3    0    0 -1.4645309719e+01 +2.2840894626e+01 +3.2912524978e+01 4.2691727461e+01 1.7770000000e+00 0.0000e+00 -1.0000e+00
       22  1    3    3    0    0 -7.9848738996e-03 +1.4118634650e-02 +6.0032506153e-03 1.7295463958e-02 0.0000000000e+00 0.0000e+00 1.0000e+00
<mgrwt>
<rscale>  2 0.12500000E+03</rscale>
<asrwt>0</asrwt>
<pdfrwt beam="1">  1       21 0.58526720E-02 0.12500000E+03</pdfrwt>
<pdfrwt beam="2">  1       21 0.14434044E-01 0.12500000E+03</pdfrwt>
<totfact> 0.86693995E+06</totfact>
</mgrwt>
</event>
<event>
 6      0 +1.3698540e+00 1.25000000e+02 7.54677100e-03 1.12640300e-01
       21 -1    0    0  502  501 +0.0000000000e+00 +0.0000000000e+00 +4.5116701786e+02 4.5116701786e+02 0.0000000000e+00 0.0000e+00 -1.0000e+00
       21 -1    0    0  501  502 -0.0000000000e+00 -0.0000000000e+00 -8.6581018678e+00 8.6581018678e+00 0.0000000000e+00 0.0000e+00 -1.0000e+00
       25  2    1    2    0    0 +0.0000000000e+00 +0.0000000000e+00 +4.4250891599e+02 4.5982511973e+02 1.2500000000e+02 0.0000e+00 0.0000e+00
      -15  1    3    3    0    0 -9.9410610967e+00 +4.6003734019e+01 +2.0624135683e+02 2.1155099441e+02 1.7770000000e+00 0.0000e+00 -1.0000e+00
       15  1    3    3    0    0 +2.8041675723e+01 -7.4583979220e+00 +5.6602455081e+01 6.3631430340e+01 1.7770000000e+00 0.0000e+00 -1.0000e+00
       22  1    3    3    0    0 -1.8100614626e+01 -3.8545336097e+01 +1.7966510402e+02 1.8464269492e+02 0.0000000000e+00 0.0000e+00 -1.0000e+00
<mgrwt>
<rscale>  2 0.12500000E+03</rscale>
<asrwt>0</asrwt>
<pdfrwt beam="1">  1       21 0.66348075E-01 0.12500000E+03</pdfrwt>
<pdfrwt beam="2">  1       21 0.12732506E-02 0.12500000E+03</pdfrwt>
<totfact> 0.48466273E+06</totfact>
</mgrwt>
</event>
<event>
 6      0 +1.3698540e+00 1.25000000e+02 7.54677100e-03 1.12640300e-01
       21 -1    0    0  502  501 +0.0000000000e+00 +0.0000000000e+00 +4.0625214417e+01 4.0625214417e+01 0.0000000000e+00 0.0000e+00 -1.0000e+00
       21 -1    0    0  501  502 -0.0000000000e+00 -0.0000000000e+00 -9.6153338660e+01 9.6153338660e+01 0.0000000000e+00 0.0000e+00 -1.0000e+00
       25  2    1    2    0    0 +0.0000000000e+00 +0.0000000000e+00 -5.5528124242e+01 1.3677855308e+02 1.2500000000e+02 0.0000e+00 0.0000e+00
      -15  1    3    3    0    0 -1.2769151623e+01 -4.1595528874e+01 -4.3799942118e+01 6.1764325578e+01 1.7770000000e+00 0.0000e+00 -1.0000e+00
       15  1    3    3    0    0 -1.7167384136e+01 +3.0754702620e+01 -2.1992081983e+01 4.1561763801e+01 1.7770000000e+00 0.0000e+00 -1.0000e+00
       22  1    3    3    0    0 +2.9936535759e+01 +1.0840826255e+01 +1.0263899860e+01 3.3452463699e+01 0.0000000000e+00 0.0000e+00 -1.0000e+00
<mgrwt>
<rscale>  2 0.12500000E+03</rscale>
<asrwt>0</asrwt>
<pdfrwt beam="1">  1       21 0.59742963E-02 0.12500000E+03</pdfrwt>
<pdfrwt beam="2">  1       21 0.14140197E-01 0.12500000E+03</pdfrwt>
<totfact> 0.86896354E+06</totfact>
</mgrwt>
</event>
<event>
 6      0 +1.3698540e+00 1.25000000e+02 7.54677100e-03 1.12640300e-01
       21 -1    0    0  502  501 +0.0000000000e+00 +0.0000000000e+00 +3.9064792438e+02 3.9064792438e+02 0.0000000000e+00 0.0000e+00 1.0000e+00
       21 -1    0    0  501  502 -0.0000000000e+00 -0.0000000000e+00 -9.9994131704e+00 9.9994131704e+00 0.0000000000e+00 0.0000e+00 1.0000e+00
       25  2    1    2    0    0 +0.0000000000e+00 +0.0000000000e+00 +3.8064851121e+02 4.0064733755e+02 1.2500000000e+02 0.0000e+00 0.0000e+00
      -15  1    3    3    0    0 +1.1997821295e+01 +2.9765551709e+01 +1.8520937958e+01 3.7096073326e+01 1.7770000000e+00 0.0000e+00 1.0000e+00
       15  1    3    3    0    0 -1.1997781949e+01 -2.9765534204e+01 +3.6212759506e+02 3.6355121596e+02 1.7770000000e+00 0.0000e+00 1.0000e+00
       22  1    3    3    0    0 -3.9345609205e-05 -1.7504626683e-05 -2.1798542557e-05 4.8266607282e-05 0.0000000000e+00 0.0000e+00 -1.0000e+00
<mgrwt>
<rscale>  2 0.12500000E+03</rscale>
<asrwt>0</asrwt>
<pdfrwt beam="1">  1       21 0.57448214E-01 0.12500000E+03</pdfrwt>
<pdfrwt beam="2">  1       21 0.14705022E-02 0.12500000E+03</pdfrwt>
<totfact> 0.53596167E+06</totfact>
</mgrwt>
</event>
<event>
 6      0 +1.3698540e+00 1.25000000e+02 7.54677100e-03 1.12640300e-01
       21 -1    0    0  502  501 +0.0000000000e+00 +0.0000000000e+00 +8.6383628543e+01 8.6383628543e+01 0.0000000000e+00 0.0000e+00 -1.0000e+00
       21 -1    0    0  501  502 -0.0000000000e+00 -0.0000000000e+00 -4.5219795300e+01 4.5219795300e+01 0.0000000000e+00 0.0000e+00 -1.0000e+00
       25  2    1    2    0    0 +0.0000000000e+00 +0.0000000000e+00 +4.1163833243e+01 1.3160342384e+02 1.2500000000e+02 0.0000e+00 0.0000e+00
      -15  1    3    3    0    0 +4.6904396663e+01 -1.3720685605e+01 +5.1900179347e+00 4.9176962645e+01 1.7770000000e+00 0.0000e+00 -1.0000e+00
       15  1    3    3    0    0 -3.1959968300e+01 -1.9381913034e+01 +2.2644032206e+01 4.3737947484e+01 1.7770000000e+00 0.0000e+00 -1.0000e+00
       22  1    3    3    0    0 -1.4944428364e+01 +3.3102598640e+01 +1.3329783103e+01 3.8688513714e+01 0.0000000000e+00 0.0000e+00 -1.0000e+00
<mgrwt>
<rscale>  2 0.12500000E+03</rscale>
<asrwt>0</asrwt>
<pdfrwt beam="1">  1       21 0.12703475E-01 0.12500000E+03</pdfrwt>
<pdfrwt beam="2">  1       21 0.66499699E-02 0.12500000E+03</pdfrwt>
<totfact> 0.87807325E+06</totfact>
</mgrwt>
</event>
<event>
 6      0 +1.3698540e+00 1.25000000e+02 7.54677100e-03 1.12640300e-01
       21 -1    0    0  502  501 +0.0000000000e+00 +0.0000000000e+00 +1.2330173196e+01 1.2330173196e+01 0.0000000000e+00 0.0000e+00 1.0000e+00
       21 -1    0    0  501  502 -0.0000000000e+00 -0.0000000000e+00 -3.1680414686e+02 3.1680414686e+02 0.0000000000e+00 0.0000e+00 1.0000e+00
       25  2    1    2    0    0 +0.0000000000e+00 +0.0000000000e+00 -3.0447397367e+02 3.2913432006e+02 1.2500000000e+02 0.0000e+00 0.0000e+00
      -15  1    3    3    0    0 +3.0802831581e+01 -2.7282005291e+01 -1.9280373455e+02 1.9715364575e+02 1.7770000000e+00 0.0000e+00 -1.0000e+00
       15  1    3    3    0    0 -5.5560150335e+00 -1.7720873480e+01 -2.6780475592e+01 3.2638171852e+01 1.7770000000e+00 0.0000e+00 -1.0000e+00
       22  1    3    3    0    0 -2.5246816548e+01 +4.5002878771e+01 -8.4889763535e+01 9.9342502468e+01 0.0000000000e+00 0.0000e+00 -1.0000e+00
<mgrwt>
<rscale>  2 0.12500000E+03</rscale>
<asrwt>0</asrwt>
<pdfrwt beam="1">  1       21 0.18132609E-02 0.12500000E+03</pdfrwt>
<pdfrwt beam="2">  1       21 0.46588842E-01 0.12500000E+03</pdfrwt>
<totfact> 0.60716038E+06</totfact>
</mgrwt>
</event>
<event>
 6      0 +1.3698540e+00 1.25000000e+02 7.54677100e-03 1.12640300e-01
       21 -1    0    0  502  501 +0.0000000000e+00 +0.0000000000e+00 +1.4861857306e+01 1.4861857306e+01 0.0000000000e+00 0.0000e+00 1.0000e+00
       21 -1    0    0  501  502 -0.0000000000e+00 -0.0000000000e+00 -2.6283726990e+02 2.6283726990e+02 0.0000000000e+00 0.0000e+00 1.0000e+00
       25  2    1    2    0    0 +0.0000000000e+00 +0.0000000000e+00 -2.4797541259e+02 2.7769912720e+02 1.2500000000e+02 0.0000e+00 0.0000e+00
      -15  1    3    3    0    0 -1.1393001786e+01 -4.0407163438e+01 -1.8435032174e+02 1.8907865612e+02 1.7770000000e+00 0.0000e+00 -1.0000e+00
       15  1    3    3    0    0 +1.2753526740e+01 +4.1372367739e+01 -2.5131334485e+01 5.0090587526e+01 1.7770000000e+00 0.0000e+00 -1.0000e+00
       22  1    3    3    0    0 -1.3605249547e+00 -9.6520430088e-01 -3.8493756378e+01 3.8529883566e+01 0.0000000000e+00 0.0000e+00 1.0000e+00
<mgrwt>
<rscale>  2 0.12500000E+03</rscale>
<asrwt>0</asrwt>
<pdfrwt beam="1">  1       21 0.21855674E-02 0.12500000E+03</pdfrwt>
<pdfrwt beam="2">  1       21 0.38652537E-01 0.12500000E+03</pdfrwt>
<totfact> 0.66566624E+06</totfact>
</mgrwt>
</event>
<event>
 6      0 +1.3698540e+00 1.25000000e+02 7.54677100e-03 1.12640300e-01
       21 -1    0    0  502  501 +0.0000000000e+00 +0.0000000000e+00 +4.2256332706e+00 4.2256332706e+00 0.0000000000e+00 0.0000e+00 -1.0000e+00
       21 -1    0    0  501  502 -0.0000000000e+00 -0.0000000000e+00 -9.2441765526e+02 9.2441765526e+02 0.0000000000e+00 0.0000e+00 -1.0000e+00
       25  2    1    2    0    0 +0.0000000000e+00 +0.0000000000e+00 -9.2019202199e+02 9.2864328853e+02 1.2500000000e+02 0.0000e+00 0.0000e+00
      -15  1    3    3    0    0 -2.4173642880e+01 +7.4828672841e-02 -6.0837211479e+02 6.0885479254e+02 1.7770000000e+00 0.0000e+00 -1.0000e+00
       15  1    3    3    0    0 +8.5736994373e+00 -3.1092271368e+01 -2.0329199048e+02 2.0584224247e+02 1.7770000000e+00 0.0000e+00 -1.0000e+00
       22  1    3    3    0    0 +1.5599943442e+01 +3.1017442695e+01 -1.0852791678e+02 1.1394625359e+02 0.0000000000e+00 0.0000e+00 -1.0000e+00
<mgrwt>
<rscale>  2 0.12500000E+03</rscale>
<asrwt>0</asrwt>
<pdfrwt beam="1">  1       21 0.62141646E-03 0.12500000E+03</pdfrwt>
<pdfrwt beam="2">  1       21 0.13594382E+00 0.12500000E+03</pdfrwt>
<totfact> 0.23444080E+06</totfact>
</mgrwt>
</event>
<event>
 6      0 +1.3698540e+00 1.25000000e+02 7.54677100e-03 1.12640300e-01
       21 -1    0    0  502  501 +0.0000000000e+00 +0.0000000000e+00 +3.7170809022e+01 3.7170809022e+01 0.0000000000e+00 0.0000e+00 1.0000e+00
       21 -1    0    0  501  502 -0.0000000000e+00 -0.0000000000e+00 -1.0508918430e+02 1.0508918430e+02 0.0000000000e+00 0.0000e+00 1.0000e+00
       25  2    1    2    0    0 +0.0000000000e+00 +0.0000000000e+00 -6.7918375279e+01 1.4225999332e+02 1.2500000000e+02 0.0000e+00 0.0000e+00
      -15  1    3    3    0    0 +6.0553616650e+00 -1.6025041237e+01 -8.6346540527e+00 1.9266144688e+01 1.7770000000e+00 0.0000e+00 -1.0000e+00
       15  1    3    3    0    0 +2.8639779857e+01 +3.5308853453e+01 -6.8509755874e+01 8.2241695637e+01 1.7770000000e+00 0.0000e+00 -1.0000e+00
       22  1    3    3    0    0 -3.4695141522e+01 -1.9283812216e+01 +9.2260346457e+00 4.0752152999e+01 0.0000000000e+00 0.0000e+00 -1.0000e+00
<mgrwt>
<rscale>  2 0.12500000E+03</rscale>
<asrwt>0</asrwt>
<pdfrwt beam="1">  1       21 0.54662955E-02 0.12500000E+03</pdfrwt>
<pdfrwt beam="2">  1       21 0.15454292E-01 0.12500000E+03</pdfrwt>
<totfact> 0.85948730E+06</totfact>
</mgrwt>
</event>
<event>
 6      0 +1.3698540e+00 1.25000000e+02 7.54677100e-03 1.12640300e-01
       21 -1    0    0  502  501 +0.0000000000e+00 +0.0000000000e+00 +2.3570748530e+01 2.3570748530e+01 0.0000000000e+00 0.0000e+00 1.0000e+00
       21 -1    0    0  501  502 -0.0000000000e+00 -0.0000000000e+00 -1.6572447816e+02 1.6572447816e+02 0.0000000000e+00 0.0000e+00 1.0000e+00
       25  2    1    2    0    0 +0.0000000000e+00 +0.0000000000e+00 -1.4215372963e+02 1.8929522669e+02 1.2500000000e+02 0.0000e+00 0.0000e+00
      -15  1    3    3    0    0 +1.8645984953e+01 +2.2928246804e+01 -1.2512665882e+01 3.2141900891e+01 1.7770000000e+00 0.0000e+00 -1.0000e+00
       15  1    3    3    0    0 +1.8054126140e+01 -1.3044701397e+00 -1.0772425431e+02 1.0924891674e+02 1.7770000000e+00 0.0000e+00 -1.0000e+00
       22  1    3    3    0    0 -3.6700111092e+01 -2.1623776664e+01 -2.1916809437e+01 4.7904409060e+01 0.0000000000e+00 0.0000e+00 -1.0000e+00
<mgrwt>
<rscale>  2 0.12500000E+03</rscale>
<asrwt>0</asrwt>
<pdfrwt beam="1">  1       21 0.34662866E-02 0.12500000E+03</pdfrwt>
<pdfrwt beam="2">  1       21 0.24371246E-01 0.12500000E+03</pdfrwt>
<totfact> 0.78402838E+06</totfact>
</mgrwt>
</event>
<event>
 6      0 +1.3698540e+00 1.25000000e+02 7.54677100e-03 1.12640300e-01
       21 -1    0    0  502  501 +0.0000000000e+00 +0.0000000000e+00 +1.7271281600e+01 1.7271281600e+01 0.0000000000e+00 0.0000e+00 -1.0000e+00
       21 -1    0    0  501  502 -0.0000000000e+00 -0.0000000000e+00 -2.2617024552e+02 2.2617024552e+02 0.0000000000e+00 0.0000e+00 -1.0000e+00
       25  2    1    2    0    0 +0.0000000000e+00 +0.0000000000e+00 -2.0889896392e+02 2.4344152712e+02 1.2500000000e+02 0.0000e+00 0.0000e+00
      -15  1    3    3    0    0 -4.4530830071e+00 -1.5036293775e+01 -1.2012198177e+01 1.9833575391e+01 1.7770000000e+00 0.0000e+00 -1.0000e+00
       15  1    3    3    0    0 -2.7230020859e+01 +1.3533534699e+01 -1.8829973590e+02 1.9074742165e+02 1.7770000000e+00 0.0000e+00 -1.0000e+00
       22  1    3    3    0    0 +3.1683103866e+01 +1.5027590756e+00 -8.5870298419e+00 3.2860530077e+01 0.0000000000e+00 0.0000e+00 -1.0000e+00
<mgrwt>
<rscale>  2 0.12500000E+03</rscale>
<asrwt>0</asrwt>
<pdfrwt beam="1">  1       21 0.25398945E-02 0.12500000E+03</pdfrwt>
<pdfrwt beam="2">  1       21 0.33260328E-01 0.12500000E+03</pdfrwt>
<totfact> 0.70853923E+06</totfact>
</mgrwt>
</event>
<event>
 6      0 +1.3698540e+00 1.25000000e+02 7.54677100e-03 1.12640300e-01
       21 -1    0    0  502  501 +0.0000000000e+00 +0.0000000000e+00 +3.0878132297e+02 3.0878132297e+02 0.0000000000e+00 0.0000e+00 -1.0000e+00
       21 -1    0    0  501  502 -0.0000000000e+00 -0.0000000000e+00 -1.2650538454e+01 1.2650538454e+01 0.0000000000e+00 0.0000e+00 -1.0000e+00
       25  2    1    2    0    0 +0.0000000000e+00 +0.0000000000e+00 +2.9613078452e+02 3.2143186142e+02 1.2500000000e+02 0.0000e+00 0.0000e+00
      -15  1    3    3    0    0 +3.4850128696e+01 -2.9245534358e-01 +7.2115116651e+01 8.0114697645e+01 1.7770000000e+00 0.0000e+00 -1.0000e+00
       15  1    3    3    0    0 -1.1918788892e+01 -1.8205750374e+01 +7.9238297340e+00 2.3226099155e+01 1.7770000000e+00 0.0000e+00 -1.0000e+00
       22  1    3    3    0    0 -2.2931339804e+01 +1.8498205718e+01 +2.1609183818e+02 2.1809106466e+02 0.0000000000e+00 0.0000e+00 -1.0000e+00
<mgrwt>
<rscale>  2 0.12500000E+03</rscale>
<asrwt>0</asrwt>
<pdfrwt beam="1">  1       21 0.45409013E-01 0.12500000E+03</pdfrwt>
<pdfrwt beam="2">  1       21 0.18603735E-02 0.12500000E+03</pdfrwt>
<totfact> 0.61549657E+06</totfact>
</mgrwt>
</event>
<event>
 6      0 +1.3698540e+00 1.25000000e+02 7.54677100e-03 1.12640300e-01
       21 -1    0    0  502  501 +0.0000000000e+00 +0.0000000000e+00 +1.1419735074e+02 1.1419735074e+02 0.0000000000e+00 0.0000e+00 -1.0000e+00
       21 -1    0    0  501  502 -0.0000000000e+00 -0.0000000000e+00 -3.4206135034e+01 3.4206135034e+01 0.0000000000e+00 0.0000e+00 -1.0000e+00
       25  2    1    2    0    0 +0.0000000000e+00 +0.0000000000e+00 +7.9991215707e+01 1.4840348578e+02 1.2500000000e+02 0.0000e+00 0.0000e+00
      -15  1    3    3    0    0 +2.0980131349e+00 +2.0071152958e+01 +3.7052470005e+01 4.2229090716e+01 1.7770000000e+00 0.0000e+00 -1.0000e+00
       15  1    3    3    0    0 -6.1688160882e+00 +2.9187112822e+01 -1.2062966023e+01 3.2227546061e+01 1.7770000000e+00 0.0000e+00 -1.0000e+00
       22  1    3    3    0    0 +4.0708029533e+00 -4.9258265780e+01 +5.5001711720e+01 7.3946848996e+01 0.0000000000e+00 0.0000e+00 -1.0000e+00
<mgrwt>
<rscale>  2 0.12500000E+03</rscale>
<asrwt>0</asrwt>
<pdfrwt beam="1">  1       21 0.16793728E-01 0.12500000E+03</pdfrwt>
<pdfrwt beam="2">  1       21 0.50303140E-02 0.12500000E+03</pdfrwt>
<totfact> 0.84894192E+06</totfact>
</mgrwt>
</event>
<event>
 6      0 +1.3698540e+00 1.25000000e+02 7.54677100e-03 1.12640300e-01
       21 -1    0    0  502  501 +0.0000000000e+00 +0.0000000000e+00 +3.1193136370e+02 3.1193136370e+02 0.0000000000e+00 0.0000e+00 -1.0000e+00
       21 -1    0    0  501  502 -0.0000000000e+00 -0.0000000000e+00 -1.2522786916e+01 1.2522786916e+01 0.0000000000e+00 0.0000e+00 -1.0000e+00
       25  2    1    2    0    0 +0.0000000000e+00 +0.0000000000e+00 +2.9940857678e+02 3.2445415061e+02 1.2500000000e+02 0.0000e+00 0.0000e+00
      -15  1    3    3    0    0 +4.1409443451e+01 -2.0579518445e+01 +9.3052529375e+01 1.0392396037e+02 1.7770000000e+00 0.0000e+00 -1.0000e+00
       15  1    3    3    0    0 +1.4329277395e+01 +9.4904520106e+00 +2.4348910885e+01 2.9856725546e+01 1.7770000000e+00 0.0000e+00 -1.0000e+00
       22  1    3    3    0    0 -5.5738720846e+01 +1.1089066434e+01 +1.8200713653e+02 1.9067346471e+02 0.0000000000e+00 0.0000e+00 -1.0000e+00
<mgrwt>
<rscale>  2 0.12500000E+03</rscale>
<asrwt>0</asrwt>
<pdfrwt beam="1">  1       21 0.45872254E-01 0.12500000E+03</pdfrwt>
<pdfrwt beam="2">  1       21 0.18415865E-02 0.12500000E+03</pdfrwt>
<totfact> 0.61220802E+06</totfact>
</mgrwt>
</event>
<event>
 6      0 +1.3698540e+00 1.25000000e+02 7.54677100e-03 1.12640300e-01
       21 -1    0    0  502  501 +0.0000000000e+00 +0.0000000000e+00 +1.9221879525e+01 1.9221879525e+01 0.0000000000e+00 0.0000e+00 1.0000e+00
       21 -1    0    0  501  502 -0.0000000000e+00 -0.0000000000e+00 -2.0321894094e+02 2.0321894094e+02 0.0000000000e+00 0.0000e+00 1.0000e+00
       25  2    1    2    0    0 +0.0000000000e+00 +0.0000000000e+00 -1.8399706142e+02 2.2244082047e+02 1.2500000000e+02 0.0000e+00 0.0000e+00
      -15  1    3    3    0    0 -2.5096357938e+00 -2.7333075636e+01 -3.8634551919e+01 4.7425537704e+01 1.7770000000e+00 0.0000e+00 -1.0000e+00
       15  1    3    3    0    0 +1.4717985432e+01 -1.1676852918e+00 +9.1249209610e+00 1.7447191627e+01 1.7770000000e+00 0.0000e+00 -1.0000e+00
       22  1    3    3    0    0 -1.2208349638e+01 +2.8500760927e+01 -1.5448743046e+02 1.5756809114e+02 0.0000000000e+00 0.0000e+00 -1.0000e+00
<mgrwt>
<rscale>  2 0.12500000E+03</rscale>
<asrwt>0</asrwt>
<pdfrwt beam="1">  1       21 0.28267470E-02 0.12500000E+03</pdfrwt>
<pdfrwt beam="2">  1       21 0.29885138E-01 0.12500000E+03</pdfrwt>
<totfact> 0.73659390E+06</totfact>
</mgrwt>
</event>
<event>
 6      0 +1.3698540e+00 1.25000000e+02 7.54677100e-03 1.12640300e-01
       21 -1    0    0  502  501 +0.0000000000e+00 +0.0000000000e+00 +5.2727401040e+01 5.2727401040e+01 0.0000000000e+00 0.0000e+00 -1.0000e+00
       21 -1    0    0  501  502 -0.0000000000e+00 -0.0000000000e+00 -7.4083871440e+01 7.4083871440e+01 0.0000000000e+00 0.0000e+00 -1.0000e+00
       25  2    1    2    0    0 +0.0000000000e+00 +0.0000000000e+00 -2.1356470400e+01 1.2681127248e+02 1.2500000000e+02 0.0000e+00 0.0000e+00
      -15  1    3    3    0    0 -3.6853984901e+01 -2.3109103372e+01 +4.3870142371e+00 4.3756719308e+01 1.7770000000e+00 0.0000e+00 -1.0000e+00
       15  1    3    3    0    0 +4.7535074879e+01 +3.0683897699e+01 -2.8462462557e+00 5.6677542012e+01 1.7770000000e+00 0.0000e+00 -1.0000e+00
       22  1    3    3    0    0 -1.0681089978e+01 -7.5747943269e+00 -2.2897238382e+01 2.6377011160e+01 0.0000000000e+00 0.0000e+00 -1.0000e+00
<mgrwt>
<rscale>  2 0.12500000E+03</rscale>
<asrwt>0</asrwt>
<pdfrwt beam="1">  1       21 0.77540296E-02 0.12500000E+03</pdfrwt>
<pdfrwt beam="2">  1       21 0.10894687E-01 0.12500000E+03</pdfrwt>
<totfact> 0.88666817E+06</totfact>
</mgrwt>
</event>
<event>
 6      0 +1.3698540e+00 1.25000000e+02 7.54677100e-03 1.12640300e-01
       21 -1    0    0  502  501 +0.0000000000e+00 +0.0000000000e+00 +4.4061890233e+01 4.4061890233e+01 0.0000000000e+00 0.0000e+00 -1.0000e+00
       21 -1    0    0  501  502 -0.0000000000e+00 -0.0000000000e+00 -8.8653709120e+01 8.8653709120e+01 0.0000000000e+00 0.0000e+00 -1.0000e+00
       25  2    1    2    0    0 +0.0000000000e+00 +0.0000000000e+00 -4.4591818886e+01 1.3271559935e+02 1.2500000000e+02 0.0000e+00 0.0000e+00
      -15  1    3    3    0    0 +2.8954280051e+01 -5.3254786986e+01 -8.5594117799e+00 6.1244133835e+01 1.7770000000e+00 0.0000e+00 1.0000e+00
       15  1    3    3    0    0 -2.9174325052e+01 +5.3731980993e+01 -3.5919391481e+01 7.0933965328e+01 1.7770000000e+00 0.0000e+00 1.0000e+00
       22  1    3    3    0    0 +2.2004500087e-01 -4.7719400754e-01 -1.1301562648e-01 5.3750019077e-01 0.0000000000e+00 0.0000e+00 1.0000e+00
<mgrwt>
<rscale>  2 0.12500000E+03</rscale>
<asrwt>0</asrwt>
<pdfrwt beam="1">  1       21 0.64796899E-02 0.12500000E+03</pdfrwt>
<pdfrwt beam="2">  1       21 0.13037310E-01 0.12500000E+03</pdfrwt>
<totfact> 0.87608572E+06</totfact>
</mgrwt>
</event>
<event>
 6      0 +1.3698540e+00 1.25000000e+02 7.54677100e-03 1.12640300e-01
       21 -1    0    0  502  501 +0.0000000000e+00 +0.0000000000e+00 +1.2870209517e+02 1.2870209517e+02 0.0000000000e+00 0.0000e+00 1.0000e+00
       21 -1    0    0  501  502 -0.0000000000e+00 -0.0000000000e+00 -3.0351098752e+01 3.0351098752e+01 0.0000000000e+00 0.0000e+00 1.0000e+00
       25  2    1    2    0    0 +0.0000000000e+00 +0.0000000000e+00 +9.8350996413e+01 1.5905319392e+02 1.2500000000e+02 0.0000e+00 0.0000e+00
      -15  1    3    3    0    0 -1.9494995563e+01 -3.0202099010e+01 +5.2874821074e+01 6.3961911082e+01 1.7770000000e+00 0.0000e+00 -1.0000e+00
       15  1    3    3    0    0 -1.7738576874e+01 -1.6115018820e+01 +1.4645120705e+01 2.8142285454e+01 1.7770000000e+00 0.0000e+00 -1.0000e+00
       22  1    3    3    0    0 +3.7233572438e+01 +4.6317117830e+01 +3.0831054632e+01 6.6948997381e+01 0.0000000000e+00 0.0000e+00 -1.0000e+00
<mgrwt>
<rscale>  2 0.12500000E+03</rscale>
<asrwt>0</asrwt>
<pdfrwt beam="1">  1       21 0.18926778E-01 0.12500000E+03</pdfrwt>
<pdfrwt beam="2">  1       21 0.44633969E-02 0.12500000E+03</pdfrwt>
<totfact> 0.83132882E+06</totfact>
</mgrwt>
</event>
<event>
 6      0 +1.3698540e+00 1.25000000e+02 7.54677100e-03 1.12640300e-01
       21 -1    0    0  502  501 +0.0000000000e+00 +0.0000000000e+00 +1.3353234797e+02 1.3353234797e+02 0.0000000000e+00 0.0000e+00 -1.0000e+00
       21 -1    0    0  501  502 -0.0000000000e+00 -0.0000000000e+00 -2.9253211371e+01 2.9253211371e+01 0.0000000000e+00 0.0000e+00 -1.0000e+00
       25  2    1    2    0    0 +0.0000000000e+00 +0.0000000000e+00 +1.0427913660e+02 1.6278555934e+02 1.2500000000e+02 0.0000e+00 0.0000e+00
      -15  1    3    3    0    0 +3.6596536139e-01 +1.4148572541e+01 +2.3639263285e+01 2.7609573218e+01 1.7770000000e+00 0.0000e+00 -1.0000e+00
       15  1    3    3    0    0 +6.4629850173e+00 -7.2288376908e+00 +1.0680710549e+02 1.0726109165e+02 1.7770000000e+00 0.0000e+00 -1.0000e+00
       22  1    3    3    0    0 -6.8289503787e+00 -6.9197348501e+00 -2.6167232176e+01 2.7914894473e+01 0.0000000000e+00 0.0000e+00 -1.0000e+00
<mgrwt>
<rscale>  2 0.12500000E+03</rscale>
<asrwt>0</asrwt>
<pdfrwt beam="1">  1       21 0.19637110E-01 0.12500000E+03</pdfrwt>
<pdfrwt beam="2">  1       21 0.43019429E-02 0.12500000E+03</pdfrwt>
<totfact> 0.82525639E+06</totfact>
</mgrwt>
</event>
<event>
 6      0 +1.3698540e+00 1.25000000e+02 7.54677100e-03 1.12640300e-01
       21 -1    0    0  502  501 +0.0000000000e+00 +0.0000000000e+00 +1.0407334783e+02 1.0407334783e+02 0.0000000000e+00 0.0000e+00 1.0000e+00
       21 -1    0    0  501  502 -0.0000000000e+00 -0.0000000000e+00 -3.7533624905e+01 3.7533624905e+01 0.0000000000e+00 0.0000e+00 1.0000e+00
       25  2    1    2    0    0 +0.0000000000e+00 +0.0000000000e+00 +6.6539722923e+01 1.4160697273e+02 1.2500000000e+02 0.0000e+00 0.0000e+00
      -15  1    3    3    0    0 +3.0008179696e+01 +2.2522719897e+01 +5.3849239597e+00 3.7946263258e+01 1.7770000000e+00 0.0000e+00 -1.0000e+00
       15  1    3    3    0    0 +2.3719728730e+01 +1.5263745870e-01 +9.0268872404e+00 2.5441919178e+01 1.7770000000e+00 0.0000e+00 -1.0000e+00
       22  1    3    3    0    0 -5.3727908425e+01 -2.2675357356e+01 +5.2127911725e+01 7.8218790299e+01 0.0000000000e+00 0.0000e+00 -1.0000e+00
<mgrwt>
<rscale>  2 0.12500000E+03</rscale>
<asrwt>0</asrwt>
<pdfrwt beam="1">  1       21 0.15304904E-01 0.12500000E+03</pdfrwt>
<pdfrwt beam="2">  1       21 0.55196507E-02 0.12500000E+03</pdfrwt>
<totfact> 0.86062038E+06</totfact>
</mgrwt>
</event>
<event>
 6      0 +1.3698540e+00 1.25000000e+02 7.54677100e-03 1.12640300e-01
       21 -1    0    0  502  501 +0.0000000000e+00 +0.0000000000e+00 +7.2569688831e+00 7.2569688831e+00 0.0000000000e+00 0.0000e+00 -1.0000e+00
       21 -1    0    0  501  502 -0.0000000000e+00 -0.0000000000e+00 -5.3827569925e+02 5.3827569925e+02 0.0000000000e+00 0.0000e+00 -1.0000e+00
       25  2    1    2    0    0 +0.0000000000e+00 +0.0000000000e+00 -5.3101873037e+02 5.4553266813e+02 1.2500000000e+02 0.0000e+00 0.0000e+00
      -15  1    3    3    0    0 +5.1236216215e+01 -1.0193962197e+01 -1.1600100103e+02 1.2723386611e+02 1.7770000000e+00 0.0000e+00 1.0000e+00
       15  1    3    3    0    0 -5.1100621848e+01 +1.0177642722e+01 -4.1437088361e+02 4.1763769571e+02 1.7770000000e+00 0.0000e+00 1.0000e+00
       22  1    3    3    0    0 -1.3559436708e-01 +1.6319475830e-02 -6.4684584253e-01 6.6110642235e-01 0.0000000000e+00 0.0000e+00 1.0000e+00
<mgrwt>
<rscale>  2 0.12500000E+03</rscale>
<asrwt>0</asrwt>
<pdfrwt beam="1">  1       21 0.10672010E-02 0.12500000E+03</pdfrwt>
<pdfrwt beam="2">  1       21 0.79158212E-01 0.12500000E+03</pdfrwt>
<totfact> 0.42097175E+06</totfact>
</mgrwt>
</event>
<event>
 6      0 +1.3698540e+00 1.25000000e+02 7.54677100e-03 1.12640300e-01
       21 -1    0    0  502  501 +0.0000000000e+00 +0.0000000000e+00 +8.4375077489e+02 8.4375077489e+02 0.0000000000e+00 0.0000e+00 -1.0000e+00
       21 -1    0    0  501  502 -0.0000000000e+00 -0.0000000000e+00 -4.6296253778e+00 4.6296253778e+00 0.0000000000e+00 0.0000e+00 -1.0000e+00
       25  2    1    2    0    0 +0.0000000000e+00 +0.0000000000e+00 +8.3912114952e+02 8.4838040027e+02 1.2500000000e+02 0.0000e+00 0.0000e+00
      -15  1    3    3    0    0 -3.5292144112e+01 +3.7657769790e+01 +4.1545905794e+02 4.1865621889e+02 1.7770000000e+00 0.0000e+00 -1.0000e+00
       15  1    3    3    0    0 +1.8329923538e+00 +1.1867721394e+01 +6.8004318632e+01 6.9079285995e+01 1.7770000000e+00 0.0000e+00 -1.0000e+00
       22  1    3    3    0    0 +3.3459151758e+01 -4.9525491184e+01 +3.5565777321e+02 3.6064489565e+02 0.0000000000e+00 0.0000e+00 -1.0000e+00
<mgrwt>
<rscale>  2 0.12500000E+03</rscale>
<asrwt>0</asrwt>
<pdfrwt beam="1">  1       21 0.12408089E+00 0.12500000E+03</pdfrwt>
<pdfrwt beam="2">  1       21 0.68082785E-03 0.12500000E+03</pdfrwt>
<totfact> 0.26335832E+06</totfact>
</mgrwt>
</event>
<event>
 6      0 +1.3698540e+00 1.25000000e+02 7.54677100e-03 1.12640300e-01
       21 -1    0    0  502  501 +0.0000000000e+00 +0.0000000000e+00 +5.5860628454e+00 5.5860628454e+00 0.0000000000e+00 0.0000e+00 1.0000e+00
       21 -1    0    0  501  502 -0.0000000000e+00 -0.0000000000e+00 -6.9928500773e+02 6.9928500773e+02 0.0000000000e+00 0.0000e+00 1.0000e+00
       25  2    1    2    0    0 +0.0000000000e+00 +0.0000000000e+00 -6.9369894488e+02 7.0487107057e+02 1.2500000000e+02 0.0000e+00 0.0000e+00
      -15  1    3    3    0    0 +3.6251739023e+01 -2.9561475578e+01 -3.9986847059e+02 4.0259908212e+02 1.7770000000e+00 0.0000e+00 -1.0000e+00
       15  1    3    3    0    0 -2.6057813925e+01 +7.0930974652e-01 -4.8946831870e+01 5.5483897358e+01 1.7770000000e+00 0.0000e+00 -1.0000e+00
       22  1    3    3    0    0 -1.0193925098e+01 +2.8852165831e+01 -2.4488364244e+02 2.4678809112e+02 0.0000000000e+00 0.0000e+00 -1.0000e+00
<mgrwt>
<rscale>  2 0.12500000E+03</rscale>
<asrwt>0</asrwt>
<pdfrwt beam="1">  1       21 0.82148029E-03 0.12500000E+03</pdfrwt>
<pdfrwt beam="2">  1       21 0.10283597E+00 0.12500000E+03</pdfrwt>
<totfact> 0.32665555E+06</totfact>
</mgrwt>
</event>
<event>
 6      0 +1.3698540e+00 1.25000000e+02 7.54677100e-03 1.12640300e-01
       21 -1    0    0  502  501 +0.0000000000e+00 +0.0000000000e+00 +5.3070554957e+02 5.3070554957e+02 0.0000000000e+00 0.0000e+00 1.0000e+00
       21 -1    0    0  501  502 -0.0000000000e+00 -0.0000000000e+00 -7.3604845534e+00 7.3604845534e+00 0.0000000000e+00 0.0000e+00 1.0000e+00
       25  2    1    2    0    0 +0.0000000000e+00 +0.0000000000e+00 +5.2334506502e+02 5.3806603412e+02 1.2500000000e+02 0.0000e+00 0.0000e+00
      -15  1    3    3    0    0 +1.8129228109e+01 +3.4720764295e+00 +4.1149425231e+02 4.1191188577e+02 1.7770000000e+00 0.0000e+00 -1.0000e+00
       15  1    3    3    0    0 +6.8284847226e+00 +2.2405523047e+00 +9.5475680839e+01 9.5762266259e+01 1.7770000000e+00 0.0000e+00 -1.0000e+00
       22  1    3    3    0    0 -2.4957712831e+01 -5.7126287342e+00 +1.6375131994e+01 3.0391882217e+01 0.0000000000e+00 0.0000e+00 -1.0000e+00
<mgrwt>
<rscale>  2 0.12500000E+03</rscale>
<asrwt>0</asrwt>
<pdfrwt beam="1">  1       21 0.78044907E-01 0.12500000E+03</pdfrwt>
<pdfrwt beam="2">  1       21 0.10824246E-02 0.12500000E+03</pdfrwt>
<totfact> 0.42607612E+06</totfact>
</mgrwt>
</event>
<event>
 6      0 +1.3698540e+00 1.25000000e+02 7.54677100e-03 1.12640300e-01
       21 -1    0    0  502  501 +0.0000000000e+00 +0.0000000000e+00 +5.6333334452e+01 5.6333334452e+01 0.0000000000e+00 0.0000e+00 -1.0000e+00
       21 -1    0    0  501  502 -0.0000000000e+00 -0.0000000000e+00 -6.9341714599e+01 6.9341714599e+01 0.0000000000e+00 0.0000e+00 -1.0000e+00
       25  2    1    2    0    0 +0.0000000000e+00 +0.0000000000e+00 -1.3008380146e+01 1.2567504905e+02 1.2500000000e+02 0.0000e+00 0.0000e+00
      -15  1    3    3    0    0 +7.6835496170e-02 -1.0624343423e+00 +2.3873142743e+00 3.1609601183e+00 1.7770000000e+00 0.0000e+00 -1.0000e+00
       15  1    3    3    0    0 -5.8569754949e+01 +1.2448516131e+01 +3.4795098293e+00 6.0005386978e+01 1.7770000000e+00 0.0000e+00 -1.0000e+00
       22  1    3    3    0    0 +5.8492919453e+01 -1.1386081788e+01 -1.8875204250e+01 6.2508701955e+01 0.0000000000e+00 0.0000e+00 -1.0000e+00
<mgrwt>
<rscale>  2 0.12500000E+03</rscale>
<asrwt>0</asrwt>
<pdfrwt beam="1">  1       21 0.82843139E-02 0.12500000E+03</pdfrwt>
<pdfrwt beam="2">  1       21 0.10197311E-01 0.12500000E+03</pdfrwt>
<totfact> 0.88870998E+06</totfact>
</mgrwt>
</event>
<event>
 6      0 +1.3698540e+00 1.25000000e+02 7.54677100e-03 1.12640300e-01
       21 -1    0    0  502  501 +0.0000000000e+00 +0.0000000000e+00 +1.4565575982e+01 1.4565575982e+01 0.0000000000e+00 0.0000e+00 -1.0000e+00
       21 -1    0    0  501  502 -0.0000000000e+00 -0.0000000000e+00 -2.6818369591e+02 2.6818369591e+02 0.0000000000e+00 0.0000e+00 -1.0000e+00
       25  2    1    2    0    0 +0.0000000000e+00 +0.0000000000e+00 -2.5361811993e+02 2.8274927189e+02 1.2500000000e+02 0.0000e+00 0.0000e+00
      -15  1    3    3    0    0 -4.9494195670e+01 -2.9617683302e+01 -1.8110679913e+02 1.9007817599e+02 1.7770000000e+00 0.0000e+00 1.0000e+00
       15  1    3    3    0    0 +4.9494195378e+01 +2.9617682051e+01 -7.2511320230e+01 9.2671094505e+01 1.7770000000e+00 0.0000e+00 1.0000e+00
       22  1    3    3    0    0 +2.9174475928e-07 +1.2513753408e-06 -5.9107680325e-07 1.4143645341e-06 0.0000000000e+00 0.0000e+00 -1.0000e+00
<mgrwt>
<rscale>  2 0.12500000E+03</rscale>
<asrwt>0</asrwt>
<pdfrwt beam="1">  1       21 0.21419965E-02 0.12500000E+03</pdfrwt>
<pdfrwt beam="2">  1       21 0.39438778E-01 0.12500000E+03</pdfrwt>
<totfact> 0.65964262E+06</totfact>
</mgrwt>
</event>
<event>
 6      0 +1.3698540e+00 1.25000000e+02 7.54677100e-03 1.12640300e-01
       21 -1    0    0  502  501 +0.0000000000e+00 +0.0000000000e+00 +2.3791887122e+01 2.3791887122e+01 0.0000000000e+00 0.0000e+00 1.0000e+00
       21 -1    0    0  501  502 -0.0000000000e+00 -0.0000000000e+00 -1.6418411788e+02 1.6418411788e+02 0.0000000000e+00 0.0000e+00 1.0000e+00
       25  2    1    2    0    0 +0.0000000000e+00 +0.0000000000e+00 -1.4039223076e+02 1.8797600501e+02 1.2500000000e+02 0.0000e+00 0.0000e+00
      -15  1    3    3    0    0 +9.5222327562e+00 -2.9727545301e+01 -4.4295443702e+01 5.4218483270e+01 1.7770000000e+00 0.0000e+00 -1.0000e+00
       15  1    3    3    0    0 +2.7099083628e+01 -1.5104275740e+01 -1.6057782426e+01 3.4978701870e+01 1.7770000000e+00 0.0000e+00 -1.0000e+00
       22  1    3    3    0    0 -3.6621316384e+01 +4.4831821041e+01 -8.0039004624e+01 9.8778819860e+01 0.0000000000e+00 0.0000e+00 -1.0000e+00
<mgrwt>
<rscale>  2 0.12500000E+03</rscale>
<asrwt>0</asrwt>
<pdfrwt beam="1">  1       21 0.34988068E-02 0.12500000E+03</pdfrwt>
<pdfrwt beam="2">  1       21 0.24144724E-01 0.12500000E+03</pdfrwt>
<totfact> 0.78600162E+06</totfact>
</mgrwt>
</event>
<event>
 6      0 +1.3698540e+00 1.25000000e+02 7.54677100e-03 1.12640300e-01
       21 -1    0    0  502  501 +0.0000000000e+00 +0.0000000000e+00 +1.3604802663e+02 1.3604802663e+02 0.0000000000e+00 0.0000e+00 -1.0000e+00
       21 -1    0    0  501  502 -0.0000000000e+00 -0.0000000000e+00 -2.8712287100e+01 2.8712287100e+01 0.0000000000e+00 0.0000e+00 -1.0000e+00
       25  2    1    2    0    0 +0.0000000000e+00 +0.0000000000e+00 +1.0733573953e+02 1.6476031373e+02 1.2500000000e+02 0.0000e+00 0.0000e+00
      -15  1    3    3    0    0 -1.4868753764e+01 -1.2355118062e-01 -1.4134714500e+01 2.0592304057e+01 1.7770000000e+00 0.0000e+00 -1.0000e+00
       15  1    3    3    0    0 -2.7278955251e+00 -3.4355001864e+01 +3.3671197432e+01 4.8214259639e+01 1.7770000000e+00 0.0000e+00 -1.0000e+00
       22  1    3    3    0    0 +1.7596649289e+01 +3.4478553045e+01 +8.7799256598e+01 9.5953750033e+01 0.0000000000e+00 0.0000e+00 -1.0000e+00
<mgrwt>
<rscale>  2 0.12500000E+03</rscale>
<asrwt>0</asrwt>
<pdfrwt beam="1">  1       21 0.20007063E-01 0.12500000E+03</pdfrwt>
<pdfrwt beam="2">  1       21 0.42223952E-02 0.12500000E+03</pdfrwt>
<totfact> 0.82205103E+06</totfact>
</mgrwt>
</event>
<event>
 6      0 +1.3698540e+00 1.25000000e+02 7.54677100e-03 1.12640300e-01
       21 -1    0    0  502  501 +0.0000000000e+00 +0.0000000000e+00 +3.7752901554e+01 3.7752901554e+01 0.0000000000e+00 0.0000e+00 1.0000e+00
       21 -1    0    0  501  502 -0.0000000000e+00 -0.0000000000e+00 -1.0346886833e+02 1.0346886833e+02 0.0000000000e+00 0.0000e+00 1.0000e+00
       25  2    1    2    0    0 +0.0000000000e+00 +0.0000000000e+00 -6.5715966778e+01 1.4122176989e+02 1.2500000000e+02 0.0000e+00 0.0000e+00
      -15  1    3    3    0    0 +1.9301994096e+01 -2.5794227123e+01 -9.3331697333e+01 9.8751570038e+01 1.7770000000e+00 0.0000e+00 -1.0000e+00
       15  1    3    3    0    0 -1.9301643581e+01 +2.5794347853e+01 +2.7615696602e+01 4.2469827571e+01 1.7770000000e+00 0.0000e+00 -1.0000e+00
       22  1    3    3    0    0 -3.5051460378e-04 -1.2072958754e-04 +3.3954975663e-05 3.7227551779e-04 0.0000000000e+00 0.0000e+00 -1.0000e+00
<mgrwt>
<rscale>  2 0.12500000E+03</rscale>
<asrwt>0</asrwt>
<pdfrwt beam="1">  1       21 0.55518974E-02 0.12500000E+03</pdfrwt>
<pdfrwt beam="2">  1       21 0.15216010E-01 0.12500000E+03</pdfrwt>
<totfact> 0.86128818E+06</totfact>
</mgrwt>
</event>
<event>
 6      0 +1.3698540e+00 1.25000000e+02 7.54677100e-03 1.12640300e-01
       21 -1    0    0  502  501 +0.0000000000e+00 +0.0000000000e+00 +6.7088942171e+01 6.7088942171e+01 0.0000000000e+00 0.0000e+00 -1.0000e+00
       21 -1    0    0  501  502 -0.0000000000e+00 -0.0000000000e+00 -5.8224945477e+01 5.8224945477e+01 0.0000000000e+00 0.0000e+00 -1.0000e+00
       25  2    1    2    0    0 +0.0000000000e+00 +0.0000000000e+00 +8.8639966946e+00 1.2531388765e+02 1.2500000000e+02 0.0000e+00 0.0000e+00
      -15  1    3    3    0    0 -2.5528394178e+01 +4.1965105984e+01 +4.3133643569e+01 6.5394479630e+01 1.7770000000e+00 0.0000e+00 1.0000e+00
       15  1    3    3    0    0 +2.5528389368e+01 -4.1965098039e+01 -3.4269639834e+01 5.9919396362e+01 1.7770000000e+00 0.0000e+00 1.0000e+00
       22  1    3    3    0    0 +4.8104429069e-06 -7.9444603460e-06 -7.0412800942e-06 1.1654803152e-05 0.0000000000e+00 0.0000e+00 1.0000e+00
<mgrwt>
<rscale>  2 0.12500000E+03</rscale>
<asrwt>0</asrwt>
<pdfrwt beam="1">  1       21 0.98660209E-02 0.12500000E+03</pdfrwt>
<pdfrwt beam="2">  1       21 0.85624920E-02 0.12500000E+03</pdfrwt>
<totfact> 0.88938628E+06</totfact>
</mgrwt>
</event>
<event>
 6      0 +1.3698540e+00 1.25000000e+02 7.54677100e-03 1.12640300e-01
       21 -1    0    0  502  501 +0.0000000000e+00 +0.0000000000e+00 +1.3365619389e+01 1.3365619389e+01 0.0000000000e+00 0.0000e+00 -1.0000e+00
       21 -1    0    0  501  502 -0.0000000000e+00 -0.0000000000e+00 -2.9226105325e+02 2.9226105325e+02 0.0000000000e+00 0.0000e+00 -1.0000e+00
       25  2    1    2    0    0 +0.0000000000e+00 +0.0000000000e+00 -2.7889543386e+02 3.0562667264e+02 1.2500000000e+02 0.0000e+00 0.0000e+00
      -15  1    3    3    0    0 -3.3645972430e+00 +4.2867920837e+01 -2.4881967761e+02 2.5251409633e+02 1.7770000000e+00 0.0000e+00 1.0000e+00
       15  1    3    3    0    0 +3.4095600057e+00 -4.3045132247e+01 -2.9054856083e+01 5.2075434714e+01 1.7770000000e+00 0.0000e+00 1.0000e+00
       22  1    3    3    0    0 -4.4962762711e-02 +1.7721141021e-01 -1.0209001535e+00 1.0371415802e+00 0.0000000000e+00 0.0000e+00 -1.0000e+00
<mgrwt>
<rscale>  2 0.12500000E+03</rscale>
<asrwt>0</asrwt>
<pdfrwt beam="1">  1       21 0.19655324E-02 0.12500000E+03</pdfrwt>
<pdfrwt beam="2">  1       21 0.42979563E-01 0.12500000E+03</pdfrwt>
<totfact> 0.63307935E+06</totfact>
</mgrwt>
</event>
<event>
 6      0 +1.3698540e+00 1.25000000e+02 7.54677100e-03 1.12640300e-01
       21 -1    0    0  502  501 +0.0000000000e+00 +0.0000000000e+00 +1.1423152426e+01 1.1423152426e+01 0.0000000000e+00 0.0000e+00 1.0000e+00
       21 -1    0    0  501  502 -0.0000000000e+00 -0.0000000000e+00 -3.4195901921e+02 3.4195901921e+02 0.0000000000e+00 0.0000e+00 1.0000e+00
       25  2    1    2    0    0 +0.0000000000e+00 +0.0000000000e+00 -3.3053586679e+02 3.5338217164e+02 1.2500000000e+02 0.0000e+00 0.0000e+00
      -15  1    3    3    0    0 -4.3575190832e+01 +2.5642462086e+01 -1.3048925238e+02 1.3995333448e+02 1.7770000000e+00 0.0000e+00 -1.0000e+00
       15  1    3    3    0    0 +1.2416129886e+01 +9.9107955170e+00 -1.1517345016e+02 1.1627753653e+02 1.7770000000e+00 0.0000e+00 -1.0000e+00
       22  1    3    3    0    0 +3.1159060946e+01 -3.5553257603e+01 -8.4873164264e+01 9.7151300647e+01 0.0000000000e+00 0.0000e+00 -1.0000e+00
<mgrwt>
<rscale>  2 0.12500000E+03</rscale>
<asrwt>0</asrwt>
<pdfrwt beam="1">  1       21 0.16798755E-02 0.12500000E+03</pdfrwt>
<pdfrwt beam="2">  1       21 0.50288086E-01 0.12500000E+03</pdfrwt>
<totfact> 0.58183666E+06</totfact>
</mgrwt>
</event>
<event>
 6      0 +1.3698540e+00 1.25000000e+02 7.54677100e-03 1.12640300e-01
       21 -1    0    0  502  501 +0.0000000000e+00 +0.0000000000e+00 +1.5010770943e+02 1.5010770943e+02 0.0000000000e+00 0.0000e+00 -1.0000e+00
       21 -1    0    0  501  502 -0.0000000000e+00 -0.0000000000e+00 -2.6022980531e+01 2.6022980531e+01 0.0000000000e+00 0.0000e+00 -1.0000e+00
       25  2    1    2    0    0 +0.0000000000e+00 +0.0000000000e+00 +1.2408472890e+02 1.7613068996e+02 1.2500000000e+02 0.0000e+00 0.0000e+00
      -15  1    3    3    0    0 -5.6707043708e+01 -1.6697134130e+01 +3.3559800497e+01 6.7999272295e+01 1.7770000000e+00 0.0000e+00 -1.0000e+00
       15  1    3    3    0    0 +5.6707042661e+01 +1.6697133877e+01 +9.0524926949e+01 1.0813141586e+02 1.7770000000e+00 0.0000e+00 -1.0000e+00
       22  1    3    3    0    0 +1.0471913675e-06 +2.5277854277e-07 +1.4545840830e-06 1.8100612161e-06 0.0000000000e+00 0.0000e+00 -1.0000e+00
<mgrwt>
<rscale>  2 0.12500000E+03</rscale>
<asrwt>0</asrwt>
<pdfrwt beam="1">  1       21 0.22074663E-01 0.12500000E+03</pdfrwt>
<pdfrwt beam="2">  1       21 0.38269090E-02 0.12500000E+03</pdfrwt>
<totfact> 0.80402482E+06</totfact>
</mgrwt>
</event>
<event>
 6      0 +1.3698540e+00 1.25000000e+02 7.54677100e-03 1.12640300e-01
       21 -1    0    0  502  501 +0.0000000000e+00 +0.0000000000e+00 +2.7073737840e+01 2.7073737840e+01 0.0000000000e+00 0.0000e+00 -1.0000e+00
       21 -1    0    0  501  502 -0.0000000000e+00 -0.0000000000e+00 -1.4428188760e+02 1.4428188760e+02 0.0000000000e+00 0.0000e+00 -1.0000e+00
       25  2    1    2    0    0 +0.0000000000e+00 +0.0000000000e+00 -1.1720814976e+02 1.7135562544e+02 1.2500000000e+02 0.0000e+00 0.0000e+00
      -15  1    3    3    0    0 +2.8663476505e+01 -4.5809569271e+01 -1.0158352356e+02 1.1507598146e+02 1.7770000000e+00 0.0000e+00 -1.0000e+00
       15  1    3    3    0    0 -2.8663475384e+01 +4.5809568059e+01 -1.5624622986e+01 5.6279640363e+01 1.7770000000e+00 0.0000e+00 -1.0000e+00
       22  1    3    3    0    0 -1.1217921587e-06 +1.2125076015e-06 -3.2154288429e-06 3.6149100922e-06 0.0000000000e+00 0.0000e+00 -1.0000e+00
<mgrwt>
<rscale>  2 0.12500000E+03</rscale>
<asrwt>0</asrwt>
<pdfrwt beam="1">  1       21 0.39814321E-02 0.12500000E+03</pdfrwt>
<pdfrwt beam="2">  1       21 0.21217924E-01 0.12500000E+03</pdfrwt>
<totfact> 0.81149594E+06</totfact>
</mgrwt>
</event>
<event>
 6      0 +1.3698540e+00 1.25000000e+02 7.54677100e-03 1.12640300e-01
       21 -1    0    0  502  501 +0.0000000000e+00 +0.0000000000e+00 +1.6370424603e+02 1.6370424603e+02 0.0000000000e+00 0.0000e+00 -1.0000e+00
       21 -1    0    0  501  502 -0.0000000000e+00 -0.0000000000e+00 -2.3861629095e+01 2.3861629095e+01 0.0000000000e+00 0.0000e+00 -1.0000e+00
       25  2    1    2    0    0 +0.0000000000e+00 +0.0000000000e+00 +1.3984261693e+02 1.8756587512e+02 1.2500000000e+02 0.0000e+00 0.0000e+00
      -15  1    3    3    0    0 +2.2669872695e+01 -1.8490107310e+01 +9.5288145143e+01 9.9693507964e+01 1.7770000000e+00 0.0000e+00 -1.0000e+00
       15  1    3    3    0    0 -1.4484433107e+01 -2.4955043874e+01 +6.7101315047e+00 2.9677206928e+01 1.7770000000e+00 0.0000e+00 -1.0000e+00
       22  1    3    3    0    0 -8.1854395879e+00 +4.3445151185e+01 +3.7844340283e+01 5.8195160229e+01 0.0000000000e+00 0.0000e+00 -1.0000e+00
<mgrwt>
<rscale>  2 0.12500000E+03</rscale>
<asrwt>0</asrwt>
<pdfrwt beam="1">  1       21 0.24074153E-01 0.12500000E+03</pdfrwt>
<pdfrwt beam="2">  1       21 0.35090632E-02 0.12500000E+03</pdfrwt>
<totfact> 0.78661604E+06</totfact>
</mgrwt>
</event>
<event>
 6      0 +1.3698540e+00 1.25000000e+02 7.54677100e-03 1.12640300e-01
       21 -1    0    0  502  501 +0.0000000000e+00 +0.0000000000e+00 +3.9225714493e+01 3.9225714493e+01 0.0000000000e+00 0.0000e+00 -1.0000e+00
       21 -1    0    0  501  502 -0.0000000000e+00 -0.0000000000e+00 -9.9583909445e+01 9.9583909445e+01 0.0000000000e+00 0.0000e+00 -1.0000e+00
       25  2    1    2    0    0 +0.0000000000e+00 +0.0000000000e+00 -6.0358194952e+01 1.3880962394e+02 1.2500000000e+02 0.0000e+00 0.0000e+00
      -15  1    3    3    0    0 -2.8556348015e+01 +7.3752294779e+00 -5.6629729751e+01 6.3874431838e+01 1.7770000000e+00 0.0000e+00 -1.0000e+00
       15  1    3    3    0    0 -1.1482068270e+01 +2.1801613023e+01 -5.7038924415e+00 2.5354296286e+01 1.7770000000e+00 0.0000e+00 -1.0000e+00
       22  1    3    3    0    0 +4.0038416285e+01 -2.9176842501e+01 +1.9754272424e+00 4.9580895814e+01 0.0000000000e+00 0.0000e+00 -1.0000e+00
<mgrwt>
<rscale>  2 0.12500000E+03</rscale>
<asrwt>0</asrwt>
<pdfrwt beam="1">  1       21 0.57684875E-02 0.12500000E+03</pdfrwt>
<pdfrwt beam="2">  1       21 0.14644692E-01 0.12500000E+03</pdfrwt>
<totfact> 0.86545842E+06</totfact>
</mgrwt>
</event>
<event>
 6      0 +1.3698540e+00 1.25000000e+02 7.54677100e-03 1.12640300e-01
       21 -1    0    0  502  501 +0.0000000000e+00 +0.0000000000e+00 +2.7307853746e+01 2.7307853746e+01 0.0000000000e+00 0.0000e+00 -1.0000e+00
       21 -1    0    0  501  502 -0.0000000000e+00 -0.0000000000e+00 -1.4304492899e+02 1.4304492899e+02 0.0000000000e+00 0.0000e+00 -1.0000e+00
       25  2    1    2    0    0 +0.0000000000e+00 +0.0000000000e+00 -1.1573707524e+02 1.7035278274e+02 1.2500000000e+02 0.0000e+00 0.0000e+00
      -15  1    3    3    0    0 -5.2458148795e+01 +1.7157089094e+01 -1.8810949732e+01 5.8337232022e+01 1.7770000000e+00 0.0000e+00 -1.0000e+00
       15  1    3    3    0    0 +4.2701121248e+01 -1.7570769481e+01 -7.6457352549e+01 8.9336454954e+01 1.7770000000e+00 0.0000e+00 -1.0000e+00
       22  1    3    3    0    0 +9.7570275472e+00 +4.1368038688e-01 -2.0468772951e+01 2.2679095752e+01 0.0000000000e+00 0.0000e+00 -1.0000e+00
<mgrwt>
<rscale>  2 0.12500000E+03</rscale>
<asrwt>0</asrwt>
<pdfrwt beam="1">  1       21 0.40158608E-02 0.12500000E+03</pdfrwt>
<pdfrwt beam="2">  1       21 0.21036019E-01 0.12500000E+03</pdfrwt>
<totfact> 0.81308242E+06</totfact>
</mgrwt>
</event>
<event>
 6      0 +1.3698540e+00 1.25000000e+02 7.54677100e-03 1.12640300e-01
       21 -1    0    0  502  501 +0.0000000000e+00 +0.0000000000e+00 +1.5025863200e+03 1.5025863200e+03 0.0000000000e+00 0.0000e+00 1.0000e+00
       21 -1    0    0  501  502 -0.0000000000e+00 -0.0000000000e+00 -2.5996842565e+00 2.5996842565e+00 0.0000000000e+00 0.0000e+00 1.0000e+00
       25  2    1    2    0    0 +0.0000000000e+00 +0.0000000000e+00 +1.4999866357e+03 1.5051860042e+03 1.2500000000e+02 0.0000e+00 0.0000e+00
      -15  1    3    3    0    0 +1.6414059050e+01 -1.9504168139e+01 +1.7272730353e+02 1.7460731091e+02 1.7770000000e+00 0.0000e+00 -1.0000e+00
       15  1    3    3    0    0 +2.2825924547e+01 +1.2210712223e+01 +1.2537866516e+02 1.2803550965e+02 1.7770000000e+00 0.0000e+00 -1.0000e+00
       22  1    3    3    0    0 -3.9239983597e+01 +7.2934559165e+00 +1.2018806689e+03 1.2025431855e+03 0.0000000000e+00 0.0000e+00 -1.0000e+00
<mgrwt>
<rscale>  2 0.12500000E+03</rscale>
<asrwt>0</asrwt>
<pdfrwt beam="1">  1       21 0.22096797E+00 0.12500000E+03</pdfrwt>
<pdfrwt beam="2">  1       21 0.38230756E-03 0.12500000E+03</pdfrwt>
<totfact> 0.10538258E+06</totfact>
</mgrwt>
</event>
<event>
 6      0 +1.3698540e+00 1.25000000e+02 7.54677100e-03 1.12640300e-01
       21 -1    0    0  502  501 +0.0000000000e+00 +0.0000000000e+00 +9.8337048361e+01 9.8337048361e+01 0.0000000000e+00 0.0000e+00 1.0000e+00
       21 -1    0    0  501  502 -0.0000000000e+00 -0.0000000000e+00 -3.9723075536e+01 3.9723075536e+01 0.0000000000e+00 0.0000e+00 1.0000e+00
       25  2    1    2    0    0 +0.0000000000e+00 +0.0000000000e+00 +5.8613972825e+01 1.3806012390e+02 1.2500000000e+02 0.0000e+00 0.0000e+00
      -15  1    3    3    0    0 -1.3401145030e+01 +9.0476717998e+00 -4.5820322731e+00 1.6899816622e+01 1.7770000000e+00 0.0000e+00 -1.0000e+00
       15  1    3    3    0    0 -7.6872723228e-01 -1.2386046419e+01 -2.7015065414e+01 2.9782151966e+01 1.7770000000e+00 0.0000e+00 -1.0000e+00
       22  1    3    3    0    0 +1.4169872262e+01 +3.3383746191e+00 +9.0211070509e+01 9.1378155308e+01 0.0000000000e+00 0.0000e+00 -1.0000e+00
<mgrwt>
<rscale>  2 0.12500000E+03</rscale>
<asrwt>0</asrwt>
<pdfrwt beam="1">  1       21 0.14461331E-01 0.12500000E+03</pdfrwt>
<pdfrwt beam="2">  1       21 0.58416288E-02 0.12500000E+03</pdfrwt>
<totfact> 0.86674960E+06</totfact>
</mgrwt>
</event>
<event>
 6      0 +1.3698540e+00 1.25000000e+02 7.54677100e-03 1.12640300e-01
       21 -1    0    0  502  501 +0.0000000000e+00 +0.0000000000e+00 +3.4174591544e+01 3.4174591544e+01 0.0000000000e+00 0.0000e+00 -1.0000e+00
       21 -1    0    0  501  502 -0.0000000000e+00 -0.0000000000e+00 -1.1430275604e+02 1.1430275604e+02 0.0000000000e+00 0.0000e+00 -1.0000e+00
       25  2    1    2    0    0 +0.0000000000e+00 +0.0000000000e+00 -8.0128164494e+01 1.4847734758e+02 1.2500000000e+02 0.0000e+00 0.0000e+00
      -15  1    3    3    0    0 -7.7502031982e+00 +2.0923802813e+01 -4.3013119802e+01 4.8488734546e+01 1.7770000000e+00 0.0000e+00 -1.0000e+00
       15  1    3    3    0    0 +1.8717706747e+01 +3.1924373456e+01 -5.5526685943e+00 3.7463422481e+01 1.7770000000e+00 0.0000e+00 -1.0000e+00
       22  1    3    3    0    0 -1.0967503549e+01 -5.2848176269e+01 -3.1562376100e+01 6.2525190557e+01 0.0000000000e+00 0.0000e+00 -1.0000e+00
<mgrwt>
<rscale>  2 0.12500000E+03</rscale>
<asrwt>0</asrwt>
<pdfrwt beam="1">  1       21 0.50256752E-02 0.12500000E+03</pdfrwt>
<pdfrwt beam="2">  1       21 0.16809229E-01 0.12500000E+03</pdfrwt>
<totfact> 0.84881713E+06</totfact>
</mgrwt>
</event>
<event>
 6      0 +1.3698540e+00 1.25000000e+02 7.54677100e-03 1.12640300e-01
       21 -1    0    0  502  501 +0.0000000000e+00 +0.0000000000e+00 +1.3626453246e+02 1.3626453246e+02 0.0000000000e+00 0.0000e+00 1.0000e+00
       21 -1    0    0  501  502 -0.0000000000e+00 -0.0000000000e+00 -2.8666667177e+01 2.8666667177e+01 0.0000000000e+00 0.0000e+00 1.0000e+00
       25  2    1    2    0    0 +0.0000000000e+00 +0.0000000000e+00 +1.0759786528e+02 1.6493119964e+02 1.2500000000e+02 0.0000e+00 0.0000e+00
      -15  1    3    3    0    0 +2.7103988819e+00 +7.1230150708e+00 +7.3507391309e+01 7.3922783442e+01 1.7770000000e+00 0.0000e+00 -1.0000e+00
       15  1    3    3    0    0 -1.9640251424e+00 +3.4697505711e+01 -3.2351270996e+00 3.4948506029e+01 1.7770000000e+00 0.0000e+00 -1.0000e+00
       22  1    3    3    0    0 -7.4637373953e-01 -4.1820520781e+01 +3.7325601065e+01 5.6059910160e+01 0.0000000000e+00 0.0000e+00 -1.0000e+00
<mgrwt>
<rscale>  2 0.12500000E+03</rscale>
<asrwt>0</asrwt>
<pdfrwt beam="1">  1       21 0.20038902E-01 0.12500000E+03</pdfrwt>
<pdfrwt beam="2">  1       21 0.42156864E-02 0.12500000E+03</pdfrwt>
<totfact> 0.82177389E+06</totfact>
</mgrwt>
</event>
<event>
 6      0 +1.3698540e+00 1.25000000e+02 7.54677100e-03 1.12640300e-01
       21 -1    0    0  502  501 +0.0000000000e+00 +0.0000000000e+00 +5.9368739098e+01 5.9368739098e+01 0.0000000000e+00 0.0000e+00 1.0000e+00
       21 -1    0    0  501  502 -0.0000000000e+00 -0.0000000000e+00 -6.5796411703e+01 6.5796411703e+01 0.0000000000e+00 0.0000e+00 1.0000e+00
       25  2    1    2    0    0 +0.0000000000e+00 +0.0000000000e+00 -6.4276726051e+00 1.2516515080e+02 1.2500000000e+02 0.0000e+00 0.0000e+00
      -15  1    3    3    0    0 +9.5621292367e+00 -5.3082974897e+01 +2.8338511051e+01 6.0954618176e+01 1.7770000000e+00 0.0000e+00 1.0000e+00
       15  1    3    3    0    0 -9.5717600567e+00 +5.3084820463e+01 -3.4769230882e+01 6.4200264012e+01 1.7770000000e+00 0.0000e+00 1.0000e+00
       22  1    3    3    0    0 +9.6308199612e-03 -1.8455660043e-03 +3.0472254961e-03 1.0268611893e-02 0.0000000000e+00 0.0000e+00 -1.0000e+00
<mgrwt>
<rscale>  2 0.12500000E+03</rscale>
<asrwt>0</asrwt>
<pdfrwt beam="1">  1       21 0.87306969E-02 0.12500000E+03</pdfrwt>
<pdfrwt beam="2">  1       21 0.96759429E-02 0.12500000E+03</pdfrwt>
<totfact> 0.88967736E+06</totfact>
</mgrwt>
</event>
<event>
 6      0 +1.3698540e+00 1.25000000e+02 7.54677100e-03 1.12640300e-01
       21 -1    0    0  502  501 +0.0000000000e+00 +0.0000000000e+00 +6.7307219220e+00 6.7307219220e+00 0.0000000000e+00 0.0000e+00 -1.0000e+00
       21 -1    0    0  501  502 -0.0000000000e+00 -0.0000000000e+00 -5.8036122206e+02 5.8036122206e+02 0.0000000000e+00 0.0000e+00 -1.0000e+00
       25  2    1    2    0    0 +0.0000000000e+00 +0.0000000000e+00 -5.7363050014e+02 5.8709194398e+02 1.2500000000e+02 0.0000e+00 0.0000e+00
      -15  1    3    3    0    0 -3.9483986015e+01 -1.0517626484e+00 -2.1891017156e+02 2.2245204494e+02 1.7770000000e+00 0.0000e+00 -1.0000e+00
       15  1    3    3    0    0 -3.4841077683e+00 +4.6382647366e+00 +1.1430763326e+00 6.1738852614e+00 1.7770000000e+00 0.0000e+00 -1.0000e+00
       22  1    3    3    0    0 +4.2968093783e+01 -3.5865020882e+00 -3.5586340500e+02 3.5846601387e+02 0.0000000000e+00 0.0000e+00 -1.0000e+00
<mgrwt>
<rscale>  2 0.12500000E+03</rscale>
<asrwt>0</asrwt>
<pdfrwt beam="1">  1       21 0.98981133E-03 0.12500000E+03</pdfrwt>
<pdfrwt beam="2">  1       21 0.85347300E-01 0.12500000E+03</pdfrwt>
<totfact> 0.39352737E+06</totfact>
</mgrwt>
</event>
<event>
 6      0 +1.3698540e+00 1.25000000e+02 7.54677100e-03 1.12640300e-01
       21 -1    0    0  502  501 +0.0000000000e+00 +0.0000000000e+00 +3.0054746908e+01 3.0054746908e+01 0.0000000000e+00 0.0000e+00 -1.0000e+00
       21 -1    0    0  501  502 -0.0000000000e+00 -0.0000000000e+00 -1.2997114938e+02 1.2997114938e+02 0.0000000000e+00 0.0000e+00 -1.0000e+00
       25  2    1    2    0    0 +0.0000000000e+00 +0.0000000000e+00 -9.9916402472e+01 1.6002589629e+02 1.2500000000e+02 0.0000e+00 0.0000e+00
      -15  1    3    3    0    0 -1.5420689362e+01 -4.4501091970e+01 -2.4174421837e+01 5.2968908306e+01 1.7770000000e+00 0.0000e+00 -1.0000e+00
       15  1    3    3    0    0 +2.2980006973e+01 +7.6860232609e-01 -5.0810320590e+00 2.3614531243e+01 1.7770000000e+00 0.0000e+00 -1.0000e+00
       22  1    3    3    0    0 -7.5593176116e+00 +4.3732489644e+01 -7.0660948576e+01 8.3442456740e+01 0.0000000000e+00 0.0000e+00 -1.0000e+00
<mgrwt>
<rscale>  2 0.12500000E+03</rscale>
<asrwt>0</asrwt>
<pdfrwt beam="1">  1       21 0.44198158E-02 0.12500000E+03</pdfrwt>
<pdfrwt beam="2">  1       21 0.19113404E-01 0.12500000E+03</pdfrwt>
<totfact> 0.82974447E+06</totfact>
</mgrwt>
</event>
<event>
 6      0 +1.3698540e+00 1.25000000e+02 7.54677100e-03 1.12640300e-01
       21 -1    0    0  502  501 +0.0000000000e+00 +0.0000000000e+00 +1.8810780876e+01 1.8810780876e+01 0.0000000000e+00 0.0000e+00 -1.0000e+00
       21 -1    0    0  501  502 -0.0000000000e+00 -0.0000000000e+00 -2.0766017242e+02 2.0766017242e+02 0.0000000000e+00 0.0000e+00 -1.0000e+00
       25  2    1    2    0    0 +0.0000000000e+00 +0.0000000000e+00 -1.8884939155e+02 2.2647095330e+02 1.2500000000e+02 0.0000e+00 0.0000e+00
      -15  1    3    3    0    0 +4.6983003966e+00 -2.7395045810e+01 -1.9517271898e+02 1.9714996963e+02 1.7770000000e+00 0.0000e+00 -1.0000e+00
       15  1    3    3    0    0 -5.9504122066e+00 +2.5706452946e+01 +5.2551941335e+00 2.6963010270e+01 1.7770000000e+00 0.0000e+00 -1.0000e+00
       22  1    3    3    0    0 +1.2521118100e+00 +1.6885928642e+00 +1.0681332931e+00 2.3579734046e+00 0.0000000000e+00 0.0000e+00 -1.0000e+00
<mgrwt>
<rscale>  2 0.12500000E+03</rscale>
<asrwt>0</asrwt>
<pdfrwt beam="1">  1       21 0.27662914E-02 0.12500000E+03</pdfrwt>
<pdfrwt beam="2">  1       21 0.30538259E-01 0.12500000E+03</pdfrwt>
<totfact> 0.73112579E+06</totfact>
</mgrwt>
</event>
<event>
 6      0 +1.3698540e+00 1.25000000e+02 7.54677100e-03 1.12640300e-01
       21 -1    0    0  502  501 +0.0000000000e+00 +0.0000000000e+00 +1.2311505077e+02 1.2311505077e+02 0.0000000000e+00 0.0000e+00 1.0000e+00
       21 -1    0    0  501  502 -0.0000000000e+00 -0.0000000000e+00 -3.1728452173e+01 3.1728452173e+01 0.0000000000e+00 0.0000e+00 1.0000e+00
       25  2    1    2    0    0 +0.0000000000e+00 +0.0000000000e+00 +9.1386598594e+01 1.5484350294e+02 1.2500000000e+02 0.0000e+00 0.0000e+00
      -15  1    3    3    0    0 +5.3861601656e+01 +3.2401012101e+00 +6.6891173070e+00 5.4401033154e+01 1.7770000000e+00 0.0000e+00 1.0000e+00
       15  1    3    3    0    0 -5.3375744288e+01 -3.1669268202e+00 +8.3967559334e+01 9.9562584605e+01 1.7770000000e+00 0.0000e+00 1.0000e+00
       22  1    3    3    0    0 -4.8585736772e-01 -7.3174389903e-02 +7.2992195360e-01 8.7988518083e-01 0.0000000000e+00 0.0000e+00 1.0000e+00
<mgrwt>
<rscale>  2 0.12500000E+03</rscale>
<asrwt>0</asrwt>
<pdfrwt beam="1">  1       21 0.18105154E-01 0.12500000E+03</pdfrwt>
<pdfrwt beam="2">  1       21 0.46659489E-02 0.12500000E+03</pdfrwt>
<totfact> 0.83821165E+06</totfact>
</mgrwt>
</event>
<event>
 6      0 +1.3698540e+00 1.25000000e+02 7.54677100e-03 1.12640300e-01
       21 -1    0    0  502  501 +0.0000000000e+00 +0.0000000000e+00 +8.8650566302e+02 8.8650566302e+02 0.0000000000e+00 0.0000e+00 -1.0000e+00
       21 -1    0    0  501  502 -0.0000000000e+00 -0.0000000000e+00 -4.4063452304e+00 4.4063452304e+00 0.0000000000e+00 0.0000e+00 -1.0000e+00
       25  2    1    2    0    0 +0.0000000000e+00 +0.0000000000e+00 +8.8209931779e+02 8.9091200825e+02 1.2500000000e+02 0.0000e+00 0.0000e+00
      -15  1    3    3    0    0 +4.2944473164e+01 +4.5277158168e+01 +4.6223346041e+02 4.6643025039e+02 1.7770000000e+00 0.0000e+00 1.0000e+00
       15  1    3    3    0    0 -4.2944494163e+01 -4.5277229305e+01 +4.1986549969e+02 4.2448139256e+02 1.7770000000e+00 0.0000e+00 1.0000e+00
       22  1    3    3    0    0 +2.0999698483e-05 +7.1137543611e-05 +3.5772416405e-04 3.6533288244e-04 0.0000000000e+00 0.0000e+00 -1.0000e+00
<mgrwt>
<rscale>  2 0.12500000E+03</rscale>
<asrwt>0</asrwt>
<pdfrwt beam="1">  1       21 0.13036836E+00 0.12500000E+03</pdfrwt>
<pdfrwt beam="2">  1       21 0.64799256E-03 0.12500000E+03</pdfrwt>
<totfact> 0.24752979E+06</totfact>
</mgrwt>
</event>
<event>
 6      0 +1.3698540e+00 1.25000000e+02 7.54677100e-03 1.12640300e-01
       21 -1    0    0  502  501 +0.0000000000e+00 +0.0000000000e+00 +7.0340615633e+01 7.0340615633e+01 0.0000000000e+00 0.0000e+00 1.0000e+00
       21 -1    0    0  501  502 -0.0000000000e+00 -0.0000000000e+00 -5.5533349613e+01 5.5533349613e+01 0.0000000000e+00 0.0000e+00 1.0000e+00
       25  2    1    2    0    0 +0.0000000000e+00 +0.0000000000e+00 +1.4807266020e+01 1.2587396525e+02 1.2500000000e+02 0.0000e+00 0.0000e+00
      -15  1    3    3    0    0 -4.6583569150e+01 -4.1198783384e+01 +1.3422157719e+01 6.3644958275e+01 1.7770000000e+00 0.0000e+00 1.0000e+00
       15  1    3    3    0    0 +4.6583583836e+01 +4.1198792886e+01 +1.3851037646e+00 6.2228988901e+01 1.7770000000e+00 0.0000e+00 1.0000e+00
       22  1    3    3    0    0 -1.4686161558e-05 -9.5020022025e-06 +4.5361651216e-06 1.8070644182e-05 0.0000000000e+00 0.0000e+00 1.0000e+00
<mgrwt>
<rscale>  2 0.12500000E+03</rscale>
<asrwt>0</asrwt>
<pdfrwt beam="1">  1       21 0.10344208E-01 0.12500000E+03</pdfrwt>
<pdfrwt beam="2">  1       21 0.81666690E-02 0.12500000E+03</pdfrwt>
<totfact> 0.88834621E+06</totfact>
</mgrwt>
</event>
<event>
 6      0 +1.3698540e+00 1.25000000e+02 7.54677100e-03 1.12640300e-01
       21 -1    0    0  502  501 +0.0000000000e+00 +0.0000000000e+00 +4.0149932792e+01 4.0149932792e+01 0.0000000000e+00 0.0000e+00 1.0000e+00
       21 -1    0    0  501  502 -0.0000000000e+00 -0.0000000000e+00 -9.7291570081e+01 9.7291570081e+01 0.0000000000e+00 0.0000e+00 1.0000e+00
       25  2    1    2    0    0 +0.0000000000e+00 +0.0000000000e+00 -5.7141637289e+01 1.3744150287e+02 1.2500000000e+02 0.0000e+00 0.0000e+00
      -15  1    3    3    0    0 +6.1960255413e+01 -7.7643671775e+00 -2.6451183407e+01 6.7839380017e+01 1.7770000000e+00 0.0000e+00 1.0000e+00
       15  1    3    3    0    0 -6.1960394321e+01 +7.7643227251e+00 -3.0690415807e+01 6.9601972121e+01 1.7770000000e+00 0.0000e+00 1.0000e+00
       22  1    3    3    0    0 +1.3890728426e-04 +4.4452453625e-05 -3.8076877039e-05 1.5073520762e-04 0.0000000000e+00 0.0000e+00 1.0000e+00
<mgrwt>
<rscale>  2 0.12500000E+03</rscale>
<asrwt>0</asrwt>
<pdfrwt beam="1">  1       21 0.59044020E-02 0.12500000E+03</pdfrwt>
<pdfrwt beam="2">  1       21 0.14307584E-01 0.12500000E+03</pdfrwt>
<totfact> 0.86781676E+06</totfact>
</mgrwt>
</event>
<event>
 6      0 +1.3698540e+00 1.25000000e+02 7.54677100e-03 1.12640300e-01
       21 -1    0    0  502  501 +0.0000000000e+00 +0.0000000000e+00 +6.1791776457e+01 6.1791776457e+01 0.0000000000e+00 0.0000e+00 -1.0000e+00
       21 -1    0    0  501  502 -0.0000000000e+00 -0.0000000000e+00 -6.3216340814e+01 6.3216340814e+01 0.0000000000e+00 0.0000e+00 -1.0000e+00
       25  2    1    2    0    0 +0.0000000000e+00 +0.0000000000e+00 -1.4245643571e+00 1.2500811727e+02 1.2500000000e+02 0.0000e+00 0.0000e+00
      -15  1    3    3    0    0 -4.1967144989e+00 +2.9686908164e+01 -1.5116592794e+01 3.3624307214e+01 1.7770000000e+00 0.0000e+00 1.0000e+00
       15  1    3    3    0    0 +8.4463186449e+00 -5.7478915969e+01 +2.1872923485e+01 6.2102726111e+01 1.7770000000e+00 0.0000e+00 1.0000e+00
       22  1    3    3    0    0 -4.2496041460e+00 +2.7792007805e+01 -8.1808950479e+00 2.9281083946e+01 0.0000000000e+00 0.0000e+00 -1.0000e+00
<mgrwt>
<rscale>  2 0.12500000E+03</rscale>
<asrwt>0</asrwt>
<pdfrwt beam="1">  1       21 0.90870260E-02 0.12500000E+03</pdfrwt>
<pdfrwt beam="2">  1       21 0.92965207E-02 0.12500000E+03</pdfrwt>
<totfact> 0.89000540E+06</totfact>
</mgrwt>
</event>
<event>
 6      0 +1.3698540e+00 1.25000000e+02 7.54677100e-03 1.12640300e-01
       21 -1    0    0  502  501 +0.0000000000e+00 +0.0000000000e+00 +3.2337618469e+01 3.2337618469e+01 0.0000000000e+00 0.0000e+00 -1.0000e+00
       21 -1    0    0  501  502 -0.0000000000e+00 -0.0000000000e+00 -1.2079584660e+02 1.2079584660e+02 0.0000000000e+00 0.0000e+00 -1.0000e+00
       25  2    1    2    0    0 +0.0000000000e+00 +0.0000000000e+00 -8.8458228133e+01 1.5313346507e+02 1.2500000000e+02 0.0000e+00 0.0000e+00
      -15  1    3    3    0    0 +2.2786116906e+01 -1.3226455710e+01 +1.7554775089e+01 3.1709211781e+01 1.7770000000e+00 0.0000e+00 -1.0000e+00
       15  1    3    3    0    0 +7.0756940185e+00 +1.2159259841e+01 -3.4451416513e+00 1.4592456123e+01 1.7770000000e+00 0.0000e+00 -1.0000e+00
       22  1    3    3    0    0 -2.9861810924e+01 +1.0671958694e+00 -1.0256786157e+02 1.0683179717e+02 0.0000000000e+00 0.0000e+00 -1.0000e+00
<mgrwt>
<rscale>  2 0.12500000E+03</rscale>
<asrwt>0</asrwt>
<pdfrwt beam="1">  1       21 0.47555321E-02 0.12500000E+03</pdfrwt>
<pdfrwt beam="2">  1       21 0.17764095E-01 0.12500000E+03</pdfrwt>
<totfact> 0.84103360E+06</totfact>
</mgrwt>
</event>
<event>
 6      0 +1.3698540e+00 1.25000000e+02 7.54677100e-03 1.12640300e-01
       21 -1    0    0  502  501 +0.0000000000e+00 +0.0000000000e+00 +5.6260891768e+01 5.6260891768e+01 0.0000000000e+00 0.0000e+00 1.0000e+00
       21 -1    0    0  501  502 -0.0000000000e+00 -0.0000000000e+00 -6.9431000421e+01 6.9431000421e+01 0.0000000000e+00 0.0000e+00 1.0000e+00
       25  2    1    2    0    0 +0.0000000000e+00 +0.0000000000e+00 -1.3170108653e+01 1.2569189219e+02 1.2500000000e+02 0.0000e+00 0.0000e+00
      -15  1    3    3    0    0 +4.5840635728e+01 +2.3416052047e+01 -1.3363478381e+01 5.3211048298e+01 1.7770000000e+00 0.0000e+00 -1.0000e+00
       15  1    3    3    0    0 +1.5207533139e+00 +2.2499527544e+00 -1.5924990211e+01 1.6252323533e+01 1.7770000000e+00 0.0000e+00 -1.0000e+00
       22  1    3    3    0    0 -4.7361389042e+01 -2.5666004801e+01 +1.6118359938e+01 5.6228520357e+01 0.0000000000e+00 0.0000e+00 -1.0000e+00
<mgrwt>
<rscale>  2 0.12500000E+03</rscale>
<asrwt>0</asrwt>
<pdfrwt beam="1">  1       21 0.82736606E-02 0.12500000E+03</pdfrwt>
<pdfrwt beam="2">  1       21 0.10210441E-01 0.12500000E+03</pdfrwt>
<totfact> 0.88867900E+06</totfact>
</mgrwt>
</event>
<event>
 6      0 +1.3698540e+00 1.25000000e+02 7.54677100e-03 1.12640300e-01
       21 -1    0    0  502  501 +0.0000000000e+00 +0.0000000000e+00 +2.9780057345e+00 2.9780057345e+00 0.0000000000e+00 0.0000e+00 -1.0000e+00
       21 -1    0    0  501  502 -0.0000000000e+00 -0.0000000000e+00 -1.3116999590e+03 1.3116999590e+03 0.0000000000e+00 0.0000e+00 -1.0000e+00
       25  2    1    2    0    0 +0.0000000000e+00 +0.0000000000e+00 -1.3087219533e+03 1.3146779648e+03 1.2500000000e+02 0.0000e+00 0.0000e+00
      -15  1    3    3    0    0 -3.4582176718e+01 +4.8147165976e+01 -4.4692186450e+02 4.5083964692e+02 1.7770000000e+00 0.0000e+00 1.0000e+00
       15  1    3    3    0    0 +3.4581850048e+01 -4.8146876889e+01 -8.6179673424e+02 8.6383493504e+02 1.7770000000e+00 0.0000e+00 1.0000e+00
       22  1    3    3    0    0 +3.2666959633e-04 -2.8908730864e-04 -3.3511528579e-03 3.3794245034e-03 0.0000000000e+00 0.0000e+00 -1.0000e+00
<mgrwt>
<rscale>  2 0.12500000E+03</rscale>
<asrwt>0</asrwt>
<pdfrwt beam="1">  1       21 0.43794286E-03 0.12500000E+03</pdfrwt>
<pdfrwt beam="2">  1       21 0.19289668E+00 0.12500000E+03</pdfrwt>
<totfact> 0.13684834E+06</totfact>
</mgrwt>
</event>
<event>
 6      0 +1.3698540e+00 1.25000000e+02 7.54677100e-03 1.12640300e-01
       21 -1    0    0  502  501 +0.0000000000e+00 +0.0000000000e+00 +7.2047984431e+01 7.2047984431e+01 0.0000000000e+00 0.0000e+00 -1.0000e+00
       21 -1    0    0  501  502 -0.0000000000e+00 -0.0000000000e+00 -5.4217339053e+01 5.4217339053e+01 0.0000000000e+00 0.0000e+00 -1.0000e+00
       25  2    1    2    0    0 +0.0000000000e+00 +0.0000000000e+00 +1.7830645378e+01 1.2626532348e+02 1.2500000000e+02 0.0000e+00 0.0000e+00
      -15  1    3    3    0    0 -1.5045364508e+00 +1.0237745110e+01 +2.7896462360e+00 1.0863466757e+01 1.7770000000e+00 0.0000e+00 -1.0000e+00
       15  1    3    3    0    0 +5.3185216409e+01 +6.0441940858e+00 +2.6902195225e+01 5.9934008406e+01 1.7770000000e+00 0.0000e+00 -1.0000e+00
       22  1    3    3    0    0 -5.1680679958e+01 -1.6281939195e+01 -1.1861196083e+01 5.5467848321e+01 0.0000000000e+00 0.0000e+00 -1.0000e+00
<mgrwt>
<rscale>  2 0.12500000E+03</rscale>
<asrwt>0</asrwt>
<pdfrwt beam="1">  1       21 0.10595292E-01 0.12500000E+03</pdfrwt>
<pdfrwt beam="2">  1       21 0.79731381E-02 0.12500000E+03</pdfrwt>
<totfact> 0.88764012E+06</totfact>
</mgrwt>
</event>
<event>
 6      0 +1.3698540e+00 1.25000000e+02 7.54677100e-03 1.12640300e-01
       21 -1    0    0  502  501 +0.0000000000e+00 +0.0000000000e+00 +2.4382427150e+02 2.4382427150e+02 0.0000000000e+00 0.0000e+00 1.0000e+00
       21 -1    0    0  501  502 -0.0000000000e+00 -0.0000000000e+00 -1.6020759443e+01 1.6020759443e+01 0.0000000000e+00 0.0000e+00 1.0000e+00
       25  2    1    2    0    0 +0.0000000000e+00 +0.0000000000e+00 +2.2780351206e+02 2.5984503094e+02 1.2500000000e+02 0.0000e+00 0.0000e+00
      -15  1    3    3    0    0 +1.7807192399e+00 +1.4811263115e+01 +1.3228178713e+02 1.3313216520e+02 1.7770000000e+00 0.0000e+00 -1.0000e+00
       15  1    3    3    0    0 -5.0648187694e+00 -8.0573008242e+00 +1.0998803855e+02 1.1041330916e+02 1.7770000000e+00 0.0000e+00 -1.0000e+00
       22  1    3    3    0    0 +3.2840995295e+00 -6.7539622904e+00 -1.4466313600e+01 1.6299556605e+01 0.0000000000e+00 0.0000e+00 -1.0000e+00
<mgrwt>
<rscale>  2 0.12500000E+03</rscale>
<asrwt>0</asrwt>
<pdfrwt beam="1">  1       21 0.35856508E-01 0.12500000E+03</pdfrwt>
<pdfrwt beam="2">  1       21 0.23559942E-02 0.12500000E+03</pdfrwt>
<totfact> 0.68754073E+06</totfact>
</mgrwt>
</event>
<event>
 6      0 +1.3698540e+00 1.25000000e+02 7.54677100e-03 1.12640300e-01
       21 -1    0    0  502  501 +0.0000000000e+00 +0.0000000000e+00 +1.6824767236e+02 1.6824767236e+02 0.0000000000e+00 0.0000e+00 1.0000e+00
       21 -1    0    0  501  502 -0.0000000000e+00 -0.0000000000e+00 -2.3217260276e+01 2.3217260276e+01 0.0000000000e+00 0.0000e+00 1.0000e+00
       25  2    1    2    0    0 +0.0000000000e+00 +0.0000000000e+00 +1.4503041208e+02 1.9146493263e+02 1.2500000000e+02 0.0000e+00 0.0000e+00
      -15  1    3    3    0    0 -1.1012582950e+01 -1.2505073349e+01 +2.3552482841e+01 2.8905553440e+01 1.7770000000e+00 0.0000e+00 -1.0000e+00
       15  1    3    3    0    0 -2.0330071116e+01 -4.7090325267e+00 +1.2489395215e+02 1.2663784502e+02 1.7770000000e+00 0.0000e+00 -1.0000e+00
       22  1    3    3    0    0 +3.1342654066e+01 +1.7214105875e+01 -3.4160229055e+00 3.5921534176e+01 0.0000000000e+00 0.0000e+00 -1.0000e+00
<mgrwt>
<rscale>  2 0.12500000E+03</rscale>
<asrwt>0</asrwt>
<pdfrwt beam="1">  1       21 0.24742304E-01 0.12500000E+03</pdfrwt>
<pdfrwt beam="2">  1       21 0.34143031E-02 0.12500000E+03</pdfrwt>
<totfact> 0.78079278E+06</totfact>
</mgrwt>
</event>
<event>
 6      0 +1.3698540e+00 1.25000000e+02 7.54677100e-03 1.12640300e-01
       21 -1    0    0  502  501 +0.0000000000e+00 +0.0000000000e+00 +7.7325023489e+01 7.7325023489e+01 0.0000000000e+00 0.0000e+00 -1.0000e+00
       21 -1    0    0  501  502 -0.0000000000e+00 -0.0000000000e+00 -5.0517281777e+01 5.0517281777e+01 0.0000000000e+00 0.0000e+00 -1.0000e+00
       25  2    1    2    0    0 +0.0000000000e+00 +0.0000000000e+00 +2.6807741712e+01 1.2784230527e+02 1.2500000000e+02 0.0000e+00 0.0000e+00
      -15  1    3    3    0    0 +2.8505555654e+01 -5.1917357177e+01 +3.3638795294e+01 6.8137397641e+01 1.7770000000e+00 0.0000e+00 1.0000e+00
       15  1    3    3    0    0 -2.8479071028e+01 +5.1929958735e+01 -6.8764832422e+00 5.9650832782e+01 1.7770000000e+00 0.0000e+00 1.0000e+00
       22  1    3    3    0    0 -2.6484626437e-02 -1.2601558279e-02 +4.5429659312e-02 5.4074843077e-02 0.0000000000e+00 0.0000e+00 -1.0000e+00
<mgrwt>
<rscale>  2 0.12500000E+03</rscale>
<asrwt>0</asrwt>
<pdfrwt beam="1">  1       21 0.11371327E-01 0.12500000E+03</pdfrwt>
<pdfrwt beam="2">  1       21 0.74290120E-02 0.12500000E+03</pdfrwt>
<totfact> 0.88485438E+06</totfact>
</mgrwt>
</event>
<event>
 6      0 +1.3698540e+00 1.25000000e+02 7.54677100e-03 1.12640300e-01
       21 -1    0    0  502  501 +0.0000000000e+00 +0.0000000000e+00 +6.6801072369e+01 6.6801072369e+01 0.0000000000e+00 0.0000e+00 -1.0000e+00
       21 -1    0    0  501  502 -0.0000000000e+00 -0.0000000000e+00 -5.8475857669e+01 5.8475857669e+01 0.0000000000e+00 0.0000e+00 -1.0000e+00
       25  2    1    2    0    0 +0.0000000000e+00 +0.0000000000e+00 +8.3252146993e+00 1.2527693004e+02 1.2500000000e+02 0.0000e+00 0.0000e+00
      -15  1    3    3    0    0 +3.0470468569e+01 -2.6465670295e+01 +1.6066324226e+01 4.3476035492e+01 1.7770000000e+00 0.0000e+00 -1.0000e+00
       15  1    3    3    0    0 +1.4706286073e+01 -5.4866891642e+00 -1.9637123397e+01 2.5202241019e+01 1.7770000000e+00 0.0000e+00 -1.0000e+00
       22  1    3    3    0    0 -4.5176754642e+01 +3.1952359459e+01 +1.1896013870e+01 5.6598653527e+01 0.0000000000e+00 0.0000e+00 -1.0000e+00
<mgrwt>
<rscale>  2 0.12500000E+03</rscale>
<asrwt>0</asrwt>
<pdfrwt beam="1">  1       21 0.98236871E-02 0.12500000E+03</pdfrwt>
<pdfrwt beam="2">  1       21 0.85993908E-02 0.12500000E+03</pdfrwt>
<totfact> 0.88945748E+06</totfact>
</mgrwt>
</event>
<event>
 6      0 +1.3698540e+00 1.25000000e+02 7.54677100e-03 1.12640300e-01
       21 -1    0    0  502  501 +0.0000000000e+00 +0.0000000000e+00 +2.2378425474e+01 2.2378425474e+01 0.0000000000e+00 0.0000e+00 -1.0000e+00
       21 -1    0    0  501  502 -0.0000000000e+00 -0.0000000000e+00 -1.7455428241e+02 1.7455428241e+02 0.0000000000e+00 0.0000e+00 -1.0000e+00
       25  2    1    2    0    0 +0.0000000000e+00 +0.0000000000e+00 -1.5217585693e+02 1.9693270788e+02 1.2500000000e+02 0.0000e+00 0.0000e+00
      -15  1    3    3    0    0 -1.9104909855e+01 +2.8483414471e+01 -1.3317871545e+02 1.3753556070e+02 1.7770000000e+00 0.0000e+00 -1.0000e+00
       15  1    3    3    0    0 +1.2256569576e+01 -3.7288971840e+01 -2.5155906074e+01 4.6654777441e+01 1.7770000000e+00 0.0000e+00 -1.0000e+00
       22  1    3    3    0    0 +6.8483402791e+00 +8.8055573692e+00 +6.1587645933e+00 1.2742369734e+01 0.0000000000e+00 0.0000e+00 -1.0000e+00
<mgrwt>
<rscale>  2 0.12500000E+03</rscale>
<asrwt>0</asrwt>
<pdfrwt beam="1">  1       21 0.32909449E-02 0.12500000E+03</pdfrwt>
<pdfrwt beam="2">  1       21 0.25669747E-01 0.12500000E+03</pdfrwt>
<totfact> 0.77268955E+06</totfact>
</mgrwt>
</event>
<event>
 6      0 +1.3698540e+00 1.25000000e+02 7.54677100e-03 1.12640300e-01
       21 -1    0    0  502  501 +0.0000000000e+00 +0.0000000000e+00 +1.8624397150e+02 1.8624397150e+02 0.0000000000e+00 0.0000e+00 1.0000e+00
       21 -1    0    0  501  502 -0.0000000000e+00 -0.0000000000e+00 -2.0973833239e+01 2.0973833239e+01 0.0000000000e+00 0.0000e+00 1.0000e+00
       25  2    1    2    0    0 +0.0000000000e+00 +0.0000000000e+00 +1.6527013826e+02 2.0721780474e+02 1.2500000000e+02 0.0000e+00 0.0000e+00
      -15  1    3    3    0    0 +1.3479069629e+01 -1.1837968016e+01 +3.6173154165e+00 1.8386557715e+01 1.7770000000e+00 0.0000e+00 -1.0000e+00
       15  1    3    3    0    0 -3.2348667491e+01 +3.6019330262e+01 +3.8398421258e+01 6.1817674860e+01 1.7770000000e+00 0.0000e+00 -1.0000e+00
       22  1    3    3    0    0 +1.8869597862e+01 -2.4181362247e+01 +1.2325440158e+02 1.2701357216e+02 0.0000000000e+00 0.0000e+00 -1.0000e+00
<mgrwt>
<rscale>  2 0.12500000E+03</rscale>
<asrwt>0</asrwt>
<pdfrwt beam="1">  1       21 0.27388818E-01 0.12500000E+03</pdfrwt>
<pdfrwt beam="2">  1       21 0.30843873E-02 0.12500000E+03</pdfrwt>
<totfact> 0.75778717E+06</totfact>
</mgrwt>
</event>
<event>
 6      0 +1.3698540e+00 1.25000000e+02 7.54677100e-03 1.12640300e-01
       21 -1    0    0  502  501 +0.0000000000e+00 +0.0000000000e+00 +4.8229121892e+02 4.8229121892e+02 0.0000000000e+00 0.0000e+00 1.0000e+00
       21 -1    0    0  501  502 -0.0000000000e+00 -0.0000000000e+00 -8.0993595710e+00 8.0993595710e+00 0.0000000000e+00 0.0000e+00 1.0000e+00
       25  2    1    2    0    0 +0.0000000000e+00 +0.0000000000e+00 +4.7419185935e+02 4.9039057850e+02 1.2500000000e+02 0.0000e+00 0.0000e+00
      -15  1    3    3    0    0 -3.3587262130e+01 +5.2406005911e+01 +2.5807588711e+02 2.6548223080e+02 1.7770000000e+00 0.0000e+00 -1.0000e+00
       15  1    3    3    0    0 +3.3587262063e+01 -5.2406006111e+01 +2.1611597131e+02 2.2490834674e+02 1.7770000000e+00 0.0000e+00 -1.0000e+00
       22  1    3    3    0    0 +6.6141839304e-08 +2.0083944074e-07 +8.1536584042e-07 8.4233762683e-07 0.0000000000e+00 0.0000e+00 1.0000e+00
<mgrwt>
<rscale>  2 0.12500000E+03</rscale>
<asrwt>0</asrwt>
<pdfrwt beam="1">  1       21 0.70925160E-01 0.12500000E+03</pdfrwt>
<pdfrwt beam="2">  1       21 0.11910826E-02 0.12500000E+03</pdfrwt>
<totfact> 0.46049351E+06</totfact>
</mgrwt>
</event>
<event>
 6      0 +1.3698540e+00 1.25000000e+02 7.54677100e-03 1.12640300e-01
       21 -1    0    0  502  501 +0.0000000000e+00 +0.0000000000e+00 +1.7749833156e+02 1.7749833156e+02 0.0000000000e+00 0.0000e+00 1.0000e+00
       21 -1    0    0  501  502 -0.0000000000e+00 -0.0000000000e+00 -2.2007249114e+01 2.2007249114e+01 0.0000000000e+00 0.0000e+00 1.0000e+00
       25  2    1    2    0    0 +0.0000000000e+00 +0.0000000000e+00 +1.5549108245e+02 1.9950558068e+02 1.2500000000e+02 0.0000e+00 0.0000e+00
      -15  1    3    3    0    0 +2.5617746453e+01 -5.6961012466e+01 +7.5343942341e+01 9.7881015784e+01 1.7770000000e+00 0.0000e+00 1.0000e+00
       15  1    3    3    0    0 -2.5617757575e+01 +5.6961020684e+01 +8.0147141297e+01 1.0162455101e+02 1.7770000000e+00 0.0000e+00 1.0000e+00
       22  1    3    3    0    0 +1.1122394309e-05 -8.2186439834e-06 -1.1932070812e-06 1.3880832369e-05 0.0000000000e+00 0.0000e+00 -1.0000e+00
<mgrwt>
<rscale>  2 0.12500000E+03</rscale>
<asrwt>0</asrwt>
<pdfrwt beam="1">  1       21 0.26102695E-01 0.12500000E+03</pdfrwt>
<pdfrwt beam="2">  1       21 0.32363603E-02 0.12500000E+03</pdfrwt>
<totfact> 0.76891083E+06</totfact>
</mgrwt>
</event>
<event>
 6      0 +1.3698540e+00 1.25000000e+02 7.54677100e-03 1.12640300e-01
       21 -1    0    0  502  501 +0.0000000000e+00 +0.0000000000e+00 +2.1973037288e+01 2.1973037288e+01 0.0000000000e+00 0.0000e+00 -1.0000e+00
       21 -1    0    0  501  502 -0.0000000000e+00 -0.0000000000e+00 -1.7777469490e+02 1.7777469490e+02 0.0000000000e+00 0.0000e+00 -1.0000e+00
       25  2    1    2    0    0 +0.0000000000e+00 +0.0000000000e+00 -1.5580165761e+02 1.9974773219e+02 1.2500000000e+02 0.0000e+00 0.0000e+00
      -15  1    3    3    0    0 +3.2673096662e+01 -5.0293245335e+01 -1.0586085809e+02 1.2168245879e+02 1.7770000000e+00 0.0000e+00 1.0000e+00
       15  1    3    3    0    0 -3.2673107991e+01 +5.0293255662e+01 -4.9940771861e+01 7.8065241778e+01 1.7770000000e+00 0.0000e+00 1.0000e+00
       22  1    3    3    0    0 +1.1329021259e-05 -1.0326077576e-05 -2.7652382417e-05 3.1616907725e-05 0.0000000000e+00 0.0000e+00 -1.0000e+00
<mgrwt>
<rscale>  2 0.12500000E+03</rscale>
<asrwt>0</asrwt>
<pdfrwt beam="1">  1       21 0.32313291E-02 0.12500000E+03</pdfrwt>
<pdfrwt beam="2">  1       21 0.26143337E-01 0.12500000E+03</pdfrwt>
<totfact> 0.76855702E+06</totfact>
</mgrwt>
</event>
<event>
 6      0 +1.3698540e+00 1.25000000e+02 7.54677100e-03 1.12640300e-01
       21 -1    0    0  502  501 +0.0000000000e+00 +0.0000000000e+00 +8.4647239504e+01 8.4647239504e+01 0.0000000000e+00 0.0000e+00 1.0000e+00
       21 -1    0    0  501  502 -0.0000000000e+00 -0.0000000000e+00 -4.6147399760e+01 4.6147399760e+01 0.0000000000e+00 0.0000e+00 1.0000e+00
       25  2    1    2    0    0 +0.0000000000e+00 +0.0000000000e+00 +3.8499839744e+01 1.3079463926e+02 1.2500000000e+02 0.0000e+00 0.0000e+00
      -15  1    3    3    0    0 -4.1771364886e+01 -1.2903368015e+01 -2.0649454327e+01 4.8382863946e+01 1.7770000000e+00 0.0000e+00 -1.0000e+00
       15  1    3    3    0    0 -2.7847296088e+00 -3.3205087100e+00 -1.9479100450e+00 5.0727290122e+00 1.7770000000e+00 0.0000e+00 -1.0000e+00
       22  1    3    3    0    0 +4.4556094495e+01 +1.6223876725e+01 +6.1097204118e+01 7.7339046307e+01 0.0000000000e+00 0.0000e+00 -1.0000e+00
<mgrwt>
<rscale>  2 0.12500000E+03</rscale>
<asrwt>0</asrwt>
<pdfrwt beam="1">  1       21 0.12448124E-01 0.12500000E+03</pdfrwt>
<pdfrwt beam="2">  1       21 0.67863823E-02 0.12500000E+03</pdfrwt>
<totfact> 0.87953260E+06</totfact>
</mgrwt>
</event>
<event>
 6      0 +1.3698540e+00 1.25000000e+02 7.54677100e-03 1.12640300e-01
       21 -1    0    0  502  501 +0.0000000000e+00 +0.0000000000e+00 +5.4801145287e+01 5.4801145287e+01 0.0000000000e+00 0.0000e+00 -1.0000e+00
       21 -1    0    0  501  502 -0.0000000000e+00 -0.0000000000e+00 -7.1280444588e+01 7.1280444588e+01 0.0000000000e+00 0.0000e+00 -1.0000e+00
       25  2    1    2    0    0 +0.0000000000e+00 +0.0000000000e+00 -1.6479299301e+01 1.2608158988e+02 1.2500000000e+02 0.0000e+00 0.0000e+00
      -15  1    3    3    0    0 +3.1448063665e+00 -3.8628595525e+01 -4.8973720508e+01 6.2479126344e+01 1.7770000000e+00 0.0000e+00 -1.0000e+00
       15  1    3    3    0    0 +5.3399810288e+00 +9.5029884258e+00 -7.5397996071e+00 1.3372677127e+01 1.7770000000e+00 0.0000e+00 -1.0000e+00
       22  1    3    3    0    0 -8.4847873953e+00 +2.9125607099e+01 +4.0034220815e+01 5.0229786405e+01 0.0000000000e+00 0.0000e+00 -1.0000e+00
<mgrwt>
<rscale>  2 0.12500000E+03</rscale>
<asrwt>0</asrwt>
<pdfrwt beam="1">  1       21 0.80589920E-02 0.12500000E+03</pdfrwt>
<pdfrwt beam="2">  1       21 0.10482418E-01 0.12500000E+03</pdfrwt>
<totfact> 0.88797033E+06</totfact>
</mgrwt>
</event>
<event>
 6      0 +1.3698540e+00 1.25000000e+02 7.54677100e-03 1.12640300e-01
       21 -1    0    0  502  501 +0.0000000000e+00 +0.0000000000e+00 +5.5281262131e+01 5.5281262131e+01 0.0000000000e+00 0.0000e+00 1.0000e+00
       21 -1    0    0  501  502 -0.0000000000e+00 -0.0000000000e+00 -7.0661375110e+01 7.0661375110e+01 0.0000000000e+00 0.0000e+00 1.0000e+00
       25  2    1    2    0    0 +0.0000000000e+00 +0.0000000000e+00 -1.5380112978e+01 1.2594263724e+02 1.2500000000e+02 0.0000e+00 0.0000e+00
      -15  1    3    3    0    0 +3.6230147500e+01 +2.1998056900e+01 -5.3930701948e+01 6.8616444361e+01 1.7770000000e+00 0.0000e+00 1.0000e+00
       15  1    3    3    0    0 -3.6228846394e+01 -2.1993322523e+01 +3.8552498453e+01 5.7320924737e+01 1.7770000000e+00 0.0000e+00 1.0000e+00
       22  1    3    3    0    0 -1.3011051740e-03 -4.7343773039e-03 -1.9094835757e-03 5.2681429987e-03 0.0000000000e+00 0.0000e+00 -1.0000e+00
<mgrwt>
<rscale>  2 0.12500000E+03</rscale>
<asrwt>0</asrwt>
<pdfrwt beam="1">  1       21 0.81295974E-02 0.12500000E+03</pdfrwt>
<pdfrwt beam="2">  1       21 0.10391379E-01 0.12500000E+03</pdfrwt>
<totfact> 0.88822151E+06</totfact>
</mgrwt>
</event>
<event>
 6      0 +1.3698540e+00 1.25000000e+02 7.54677100e-03 1.12640300e-01
       21 -1    0    0  502  501 +0.0000000000e+00 +0.0000000000e+00 +1.0637904747e+01 1.0637904747e+01 0.0000000000e+00 0.0000e+00 -1.0000e+00
       21 -1    0    0  501  502 -0.0000000000e+00 -0.0000000000e+00 -3.6720106948e+02 3.6720106948e+02 0.0000000000e+00 0.0000e+00 -1.0000e+00
       25  2    1    2    0    0 +0.0000000000e+00 +0.0000000000e+00 -3.5656316473e+02 3.7783897422e+02 1.2500000000e+02 0.0000e+00 0.0000e+00
      -15  1    3    3    0    0 -4.3975739598e+01 -4.4372475934e+01 -1.7672649468e+02 1.8745184433e+02 1.7770000000e+00 0.0000e+00 -1.0000e+00
       15  1    3    3    0    0 +4.3974913782e+01 +4.4372616259e+01 -1.7983585089e+02 1.9038595828e+02 1.7770000000e+00 0.0000e+00 -1.0000e+00
       22  1    3    3    0    0 +8.2581635014e-04 -1.4032494505e-04 -8.1919469815e-04 1.1716414502e-03 0.0000000000e+00 0.0000e+00 1.0000e+00
<mgrwt>
<rscale>  2 0.12500000E+03</rscale>
<asrwt>0</asrwt>
<pdfrwt beam="1">  1       21 0.15643981E-02 0.12500000E+03</pdfrwt>
<pdfrwt beam="2">  1       21 0.54000147E-01 0.12500000E+03</pdfrwt>
<totfact> 0.55753801E+06</totfact>
</mgrwt>
</event>
<event>
 6      0 +1.3698540e+00 1.25000000e+02 7.54677100e-03 1.12640300e-01
       21 -1    0    0  502  501 +0.0000000000e+00 +0.0000000000e+00 +6.4189027661e+01 6.4189027661e+01 0.0000000000e+00 0.0000e+00 1.0000e+00
       21 -1    0    0  501  502 -0.0000000000e+00 -0.0000000000e+00 -6.0855416297e+01 6.0855416297e+01 0.0000000000e+00 0.0000e+00 1.0000e+00
       25  2    1    2    0    0 +0.0000000000e+00 +0.0000000000e+00 +3.3336113635e+00 1.2504444396e+02 1.2500000000e+02 0.0000e+00 0.0000e+00
      -15  1    3    3    0    0 +5.7218702806e+00 +2.7534079498e+00 -2.1779648047e+01 2.2755919073e+01 1.7770000000e+00 0.0000e+00 -1.0000e+00
       15  1    3    3    0    0 -2.5243452740e+01 +8.0623056225e+00 -3.1637242719e+01 4.1307451314e+01 1.7770000000e+00 0.0000e+00 -1.0000e+00
       22  1    3    3    0    0 +1.9521582459e+01 -1.0815713572e+01 +5.6750502130e+01 6.0981073570e+01 0.0000000000e+00 0.0000e+00 -1.0000e+00
<mgrwt>
<rscale>  2 0.12500000E+03</rscale>
<asrwt>0</asrwt>
<pdfrwt beam="1">  1       21 0.94395629E-02 0.12500000E+03</pdfrwt>
<pdfrwt beam="2">  1       21 0.89493259E-02 0.12500000E+03</pdfrwt>
<totfact> 0.88992844E+06</totfact>
</mgrwt>
</event>
<event>
 6      0 +1.3698540e+00 1.25000000e+02 7.54677100e-03 1.12640300e-01
       21 -1    0    0  502  501 +0.0000000000e+00 +0.0000000000e+00 +6.1967254652e+00 6.1967254652e+00 0.0000000000e+00 0.0000e+00 1.0000e+00
       21 -1    0    0  501  502 -0.0000000000e+00 -0.0000000000e+00 -6.3037325470e+02 6.3037325470e+02 0.0000000000e+00 0.0000e+00 1.0000e+00
       25  2    1    2    0    0 +0.0000000000e+00 +0.0000000000e+00 -6.2417652923e+02 6.3656998016e+02 1.2500000000e+02 0.0000e+00 0.0000e+00
      -15  1    3    3    0    0 +2.0157236200e+00 +2.0236353814e+01 -5.5571938740e+01 5.9202797752e+01 1.7770000000e+00 0.0000e+00 1.0000e+00
       15  1    3    3    0    0 -4.0218303720e+01 -1.2013861273e+01 -4.6057425901e+02 4.6248637884e+02 1.7770000000e+00 0.0000e+00 1.0000e+00
       22  1    3    3    0    0 +3.8202580100e+01 -8.2224925404e+00 -1.0803033149e+02 1.1488080358e+02 0.0000000000e+00 0.0000e+00 1.0000e+00
<mgrwt>
<rscale>  2 0.12500000E+03</rscale>
<asrwt>0</asrwt>
<pdfrwt beam="1">  1       21 0.91128368E-03 0.12500000E+03</pdfrwt>
<pdfrwt beam="2">  1       21 0.92701896E-01 0.12500000E+03</pdfrwt>
<totfact> 0.36305363E+06</totfact>
</mgrwt>
</event>
<event>
 6      0 +1.3698540e+00 1.25000000e+02 7.54677100e-03 1.12640300e-01
       21 -1    0    0  502  501 +0.0000000000e+00 +0.0000000000e+00 +4.6749830224e+01 4.6749830224e+01 0.0000000000e+00 0.0000e+00 -1.0000e+00
       21 -1    0    0  501  502 -0.0000000000e+00 -0.0000000000e+00 -8.3556453174e+01 8.3556453174e+01 0.0000000000e+00 0.0000e+00 -1.0000e+00
       25  2    1    2    0    0 +0.0000000000e+00 +0.0000000000e+00 -3.6806622950e+01 1.3030628340e+02 1.2500000000e+02 0.0000e+00 0.0000e+00
      -15  1    3    3    0    0 +3.2715396218e+01 -1.3447012490e+01 -7.2086696439e+01 8.0316678387e+01 1.7770000000e+00 0.0000e+00 1.0000e+00
       15  1    3    3    0    0 -3.2715396182e+01 +1.3447012468e+01 +3.5280073456e+01 4.9989604958e+01 1.7770000000e+00 0.0000e+00 1.0000e+00
       22  1    3    3    0    0 -3.5769079976e-08 +2.2412255921e-08 +3.3022754590e-08 5.3593270272e-08 0.0000000000e+00 0.0000e+00 1.0000e+00
<mgrwt>
<rscale>  2 0.12500000E+03</rscale>
<asrwt>0</asrwt>
<pdfrwt beam="1">  1       21 0.68749751E-02 0.12500000E+03</pdfrwt>
<pdfrwt beam="2">  1       21 0.12287714E-01 0.12500000E+03</pdfrwt>
<totfact> 0.88042037E+06</totfact>
</mgrwt>
</event>
<event>
 6      0 +1.3698540e+00 1.25000000e+02 7.54677100e-03 1.12640300e-01
       21 -1    0    0  502  501 +0.0000000000e+00 +0.0000000000e+00 +1.3545254335e+02 1.3545254335e+02 0.0000000000e+00 0.0000e+00 1.0000e+00
       21 -1    0    0  501  502 -0.0000000000e+00 -0.0000000000e+00 -2.8838513501e+01 2.8838513501e+01 0.0000000000e+00 0.0000e+00 1.0000e+00
       25  2    1    2    0    0 +0.0000000000e+00 +0.0000000000e+00 +1.0661402984e+02 1.6429105685e+02 1.2500000000e+02 0.0000e+00 0.0000e+00
      -15  1    3    3    0    0 +1.0390911251e+01 +2.4359535000e+00 +1.1413105097e+02 1.1464274696e+02 1.7770000000e+00 0.0000e+00 -1.0000e+00
       15  1    3    3    0    0 +7.6497264203e+00 -2.1422091577e+01 -4.8157866356e+00 2.3318959062e+01 1.7770000000e+00 0.0000e+00 -1.0000e+00
       22  1    3    3    0    0 -1.8040637671e+01 +1.8986138076e+01 -2.7012344999e+00 2.6329350818e+01 0.0000000000e+00 0.0000e+00 -1.0000e+00
<mgrwt>
<rscale>  2 0.12500000E+03</rscale>
<asrwt>0</asrwt>
<pdfrwt beam="1">  1       21 0.19919491E-01 0.12500000E+03</pdfrwt>
<pdfrwt beam="2">  1       21 0.42409579E-02 0.12500000E+03</pdfrwt>
<totfact> 0.82281225E+06</totfact>
</mgrwt>
</event>
<event>
 6      0 +1.3698540e+00 1.25000000e+02 7.54677100e-03 1.12640300e-01
       21 -1    0    0  502  501 +0.0000000000e+00 +0.0000000000e+00 +6.7204367197e+01 6.7204367197e+01 0.0000000000e+00 0.0000e+00 -1.0000e+00
       21 -1    0    0  501  502 -0.0000000000e+00 -0.0000000000e+00 -5.8124942811e+01 5.8124942811e+01 0.0000000000e+00 0.0000e+00 -1.0000e+00
       25  2    1    2    0    0 +0.0000000000e+00 +0.0000000000e+00 +9.0794243864e+00 1.2532931001e+02 1.2500000000e+02 0.0000e+00 0.0000e+00
      -15  1    3    3    0    0 +1.2406833648e+01 +4.7491828147e+00 +1.1880248688e+01 1.7910396324e+01 1.7770000000e+00 0.0000e+00 -1.0000e+00
       15  1    3    3    0    0 +4.1975830544e+01 -2.0604718727e+00 +2.2133980849e+01 4.7531954845e+01 1.7770000000e+00 0.0000e+00 -1.0000e+00
       22  1    3    3    0    0 -5.4382664192e+01 -2.6887109420e+00 -2.4934805151e+01 5.9886958840e+01 0.0000000000e+00 0.0000e+00 -1.0000e+00
<mgrwt>
<rscale>  2 0.12500000E+03</rscale>
<asrwt>0</asrwt>
<pdfrwt beam="1">  1       21 0.98829952E-02 0.12500000E+03</pdfrwt>
<pdfrwt beam="2">  1       21 0.85477857E-02 0.12500000E+03</pdfrwt>
<totfact> 0.88935672E+06</totfact>
</mgrwt>
</event>
<event>
 6      0 +1.3698540e+00 1.25000000e+02 7.54677100e-03 1.12640300e-01
       21 -1    0    0  502  501 +0.0000000000e+00 +0.0000000000e+00 +6.5580774991e+02 6.5580774991e+02 0.0000000000e+00 0.0000e+00 -1.0000e+00
       21 -1    0    0  501  502 -0.0000000000e+00 -0.0000000000e+00 -5.9563949962e+00 5.9563949962e+00 0.0000000000e+00 0.0000e+00 -1.0000e+00
       25  2    1    2    0    0 +0.0000000000e+00 +0.0000000000e+00 +6.4985135491e+02 6.6176414490e+02 1.2500000000e+02 0.0000e+00 0.0000e+00
      -15  1    3    3    0    0 -2.1081449674e+01 -5.6687413540e+01 +2.4431156232e+02 2.5169264507e+02 1.7770000000e+00 0.0000e+00 -1.0000e+00
       15  1    3    3    0    0 +2.1102009269e+01 +5.6819909503e+01 +4.0504778733e+02 4.0956155173e+02 1.7770000000e+00 0.0000e+00 -1.0000e+00
       22  1    3    3    0    0 -2.0559595084e-02 -1.3249596281e-01 +4.9200533407e-01 5.0994815998e-01 0.0000000000e+00 0.0000e+00 1.0000e+00
<mgrwt>
<rscale>  2 0.12500000E+03</rscale>
<asrwt>0</asrwt>
<pdfrwt beam="1">  1       21 0.96442266E-01 0.12500000E+03</pdfrwt>
<pdfrwt beam="2">  1       21 0.87594089E-03 0.12500000E+03</pdfrwt>
<totfact> 0.34915131E+06</totfact>
</mgrwt>
</event>
<event>
 6      0 +1.3698540e+00 1.25000000e+02 7.54677100e-03 1.12640300e-01
       21 -1    0    0  502  501 +0.0000000000e+00 +0.0000000000e+00 +2.4602068537e+01 2.4602068537e+01 0.0000000000e+00 0.0000e+00 -1.0000e+00
       21 -1    0    0  501  502 -0.0000000000e+00 -0.0000000000e+00 -1.5877729932e+02 1.5877729932e+02 0.0000000000e+00 0.0000e+00 -1.0000e+00
       25  2    1    2    0    0 +0.0000000000e+00 +0.0000000000e+00 -1.3417523079e+02 1.8337936786e+02 1.2500000000e+02 0.0000e+00 0.0000e+00
      -15  1    3    3    0    0 -2.1294215294e+01 +3.1344302333e-01 +1.9075498589e+01 2.8645666808e+01 1.7770000000e+00 0.0000e+00 1.0000e+00
       15  1    3    3    0    0 +2.1294392776e+01 -3.1355756751e-01 -1.5325048381e+02 1.5473337713e+02 1.7770000000e+00 0.0000e+00 1.0000e+00
       22  1    3    3    0    0 -1.7748183263e-04 +1.1454418398e-04 -2.4557025553e-04 3.2392116541e-04 0.0000000000e+00 0.0000e+00 -1.0000e+00
<mgrwt>
<rscale>  2 0.12500000E+03</rscale>
<asrwt>0</asrwt>
<pdfrwt beam="1">  1       21 0.36179514E-02 0.12500000E+03</pdfrwt>
<pdfrwt beam="2">  1       21 0.23349602E-01 0.12500000E+03</pdfrwt>
<totfact> 0.79291925E+06</totfact>
</mgrwt>
</event>
<event>
 6      0 +1.3698540e+00 1.25000000e+02 7.54677100e-03 1.12640300e-01
       21 -1    0    0  502  501 +0.0000000000e+00 +0.0000000000e+00 +9.9506478686e+00 9.9506478686e+00 0.0000000000e+00 0.0000e+00 1.0000e+00
       21 -1    0    0  501  502 -0.0000000000e+00 -0.0000000000e+00 -3.9256237901e+02 3.9256237901e+02 0.0000000000e+00 0.0000e+00 1.0000e+00
       25  2    1    2    0    0 +0.0000000000e+00 +0.0000000000e+00 -3.8261173114e+02 4.0251302688e+02 1.2500000000e+02 0.0000e+00 0.0000e+00
      -15  1    3    3    0    0 -4.3187986433e+01 +1.5931176470e+01 -1.3393893232e+02 1.4163968327e+02 1.7770000000e+00 0.0000e+00 -1.0000e+00
       15  1    3    3    0    0 -3.6515480906e+00 -2.9349871174e+01 -1.0854524557e+02 1.1251656237e+02 1.7770000000e+00 0.0000e+00 -1.0000e+00
       22  1    3    3    0    0 +4.6839534524e+01 +1.3418694704e+01 -1.4012755322e+02 1.4835678122e+02 0.0000000000e+00 0.0000e+00 -1.0000e+00
<mgrwt>
<rscale>  2 0.12500000E+03</rscale>
<asrwt>0</asrwt>
<pdfrwt beam="1">  1       21 0.14633307E-02 0.12500000E+03</pdfrwt>
<pdfrwt beam="2">  1       21 0.57729755E-01 0.12500000E+03</pdfrwt>
<totfact> 0.53424424E+06</totfact>
</mgrwt>
</event>
<event>
 6      0 +1.3698540e+00 1.25000000e+02 7.54677100e-03 1.12640300e-01
       21 -1    0    0  502  501 +0.0000000000e+00 +0.0000000000e+00 +3.4018843546e+02 3.4018843546e+02 0.0000000000e+00 0.0000e+00 1.0000e+00
       21 -1    0    0  501  502 -0.0000000000e+00 -0.0000000000e+00 -1.1482606676e+01 1.1482606676e+01 0.0000000000e+00 0.0000e+00 1.0000e+00
       25  2    1    2    0    0 +0.0000000000e+00 +0.0000000000e+00 +3.2870582879e+02 3.5167104214e+02 1.2500000000e+02 0.0000e+00 0.0000e+00
      -15  1    3    3    0    0 +4.8384452212e+01 -2.2179845401e+01 +7.2321296932e+01 8.9813854592e+01 1.7770000000e+00 0.0000e+00 -1.0000e+00
       15  1    3    3    0    0 -4.8384451978e+01 +2.2179845355e+01 +2.5638453133e+02 2.6185718697e+02 1.7770000000e+00 0.0000e+00 -1.0000e+00
       22  1    3    3    0    0 -2.3395529412e-07 +4.5581804197e-08 +5.3480315462e-07 5.8551447011e-07 0.0000000000e+00 0.0000e+00 1.0000e+00
<mgrwt>
<rscale>  2 0.12500000E+03</rscale>
<asrwt>0</asrwt>
<pdfrwt beam="1">  1       21 0.50027705E-01 0.12500000E+03</pdfrwt>
<pdfrwt beam="2">  1       21 0.16886188E-02 0.12500000E+03</pdfrwt>
<totfact> 0.58358054E+06</totfact>
</mgrwt>
</event>
<event>
 6      0 +1.3698540e+00 1.25000000e+02 7.54677100e-03 1.12640300e-01
       21 -1    0    0  502  501 +0.0000000000e+00 +0.0000000000e+00 +3.2353306677e+02 3.2353306677e+02 0.0000000000e+00 0.0000e+00 1.0000e+00
       21 -1    0    0  501  502 -0.0000000000e+00 -0.0000000000e+00 -1.2073727236e+01 1.2073727236e+01 0.0000000000e+00 0.0000e+00 1.0000e+00
       25  2    1    2    0    0 +0.0000000000e+00 +0.0000000000e+00 +3.1145933953e+02 3.3560679400e+02 1.2500000000e+02 0.0000e+00 0.0000e+00
      -15  1    3    3    0    0 +3.7820175803e+01 +1.1830044907e+00 +2.1518141411e+02 2.1849019178e+02 1.7770000000e+00 0.0000e+00 -1.0000e+00
       15  1    3    3    0    0 +6.1853807855e+00 +3.1118021954e-01 -4.0096721661e+00 7.5888713567e+00 1.7770000000e+00 0.0000e+00 -1.0000e+00
       22  1    3    3    0    0 -4.4005556588e+01 -1.4941847102e+00 +1.0028759760e+02 1.0952773088e+02 0.0000000000e+00 0.0000e+00 -1.0000e+00
<mgrwt>
<rscale>  2 0.12500000E+03</rscale>
<asrwt>0</asrwt>
<pdfrwt beam="1">  1       21 0.47578386E-01 0.12500000E+03</pdfrwt>
<pdfrwt beam="2">  1       21 0.17755483E-02 0.12500000E+03</pdfrwt>
<totfact> 0.60026752E+06</totfact>
</mgrwt>
</event>
<event>
 6      0 +1.3698540e+00 1.25000000e+02 7.54677100e-03 1.12640300e-01
       21 -1    0    0  502  501 +0.0000000000e+00 +0.0000000000e+00 +1.0555674381e+01 1.0555674381e+01 0.0000000000e+00 0.0000e+00 1.0000e+00
       21 -1    0    0  501  502 -0.0000000000e+00 -0.0000000000e+00 -3.7006162364e+02 3.7006162364e+02 0.0000000000e+00 0.0000e+00 1.0000e+00
       25  2    1    2    0    0 +0.0000000000e+00 +0.0000000000e+00 -3.5950594926e+02 3.8061729803e+02 1.2500000000e+02 0.0000e+00 0.0000e+00
      -15  1    3    3    0    0 -1.6206511705e+01 -2.5953455750e+01 -3.8657861707e+01 4.9333770258e+01 1.7770000000e+00 0.0000e+00 -1.0000e+00
       15  1    3    3    0    0 +1.8122268218e+01 -1.3755133017e+01 -2.9806730873e+01 3.7539568777e+01 1.7770000000e+00 0.0000e+00 -1.0000e+00
       22  1    3    3    0    0 -1.9157565124e+00 +3.9708588768e+01 -2.9104135661e+02 2.9374395892e+02 0.0000000000e+00 0.0000e+00 -1.0000e+00
<mgrwt>
<rscale>  2 0.12500000E+03</rscale>
<asrwt>0</asrwt>
<pdfrwt beam="1">  1       21 0.15523045E-02 0.12500000E+03</pdfrwt>
<pdfrwt beam="2">  1       21 0.54420845E-01 0.12500000E+03</pdfrwt>
<totfact> 0.55485072E+06</totfact>
</mgrwt>
</event>
<event>
 6      0 +1.3698540e+00 1.25000000e+02 7.54677100e-03 1.12640300e-01
       21 -1    0    0  502  501 +0.0000000000e+00 +0.0000000000e+00 +5.3968754264e+01 5.3968754264e+01 0.0000000000e+00 0.0000e+00 -1.0000e+00
       21 -1    0    0  501  502 -0.0000000000e+00 -0.0000000000e+00 -7.2379843732e+01 7.2379843732e+01 0.0000000000e+00 0.0000e+00 -1.0000e+00
       25  2    1    2    0    0 +0.0000000000e+00 +0.0000000000e+00 -1.8411089468e+01 1.2634859800e+02 1.2500000000e+02 0.0000e+00 0.0000e+00
      -15  1    3    3    0    0 +5.8282652501e+00 +2.9294623543e+01 -1.9570152680e+01 3.5753213133e+01 1.7770000000e+00 0.0000e+00 -1.0000e+00
       15  1    3    3    0    0 -2.8118966172e+01 -1.3763891062e+01 -3.3941437059e+01 4.6209304630e+01 1.7770000000e+00 0.0000e+00 -1.0000e+00
       22  1    3    3    0    0 +2.2290700922e+01 -1.5530732481e+01 +3.5100500272e+01 4.4386080233e+01 0.0000000000e+00 0.0000e+00 -1.0000e+00
<mgrwt>
<rscale>  2 0.12500000E+03</rscale>
<asrwt>0</asrwt>
<pdfrwt beam="1">  1       21 0.79365816E-02 0.12500000E+03</pdfrwt>
<pdfrwt beam="2">  1       21 0.10644095E-01 0.12500000E+03</pdfrwt>
<totfact> 0.88749107E+06</totfact>
</mgrwt>
</event>
<event>
 6      0 +1.3698540e+00 1.25000000e+02 7.54677100e-03 1.12640300e-01
       21 -1    0    0  502  501 +0.0000000000e+00 +0.0000000000e+00 +1.4469570919e+01 1.4469570919e+01 0.0000000000e+00 0.0000e+00 -1.0000e+00
       21 -1    0    0  501  502 -0.0000000000e+00 -0.0000000000e+00 -2.6996308474e+02 2.6996308474e+02 0.0000000000e+00 0.0000e+00 -1.0000e+00
       25  2    1    2    0    0 +0.0000000000e+00 +0.0000000000e+00 -2.5549351382e+02 2.8443265566e+02 1.2500000000e+02 0.0000e+00 0.0000e+00
      -15  1    3    3    0    0 -3.3648377621e+01 +2.9328178176e+01 -2.8281896314e+01 5.2871341383e+01 1.7770000000e+00 0.0000e+00 -1.0000e+00
       15  1    3    3    0    0 +3.3648259286e+01 -2.9328254447e+01 -2.2721113829e+02 2.3156081480e+02 1.7770000000e+00 0.0000e+00 -1.0000e+00
       22  1    3    3    0    0 +1.1833496834e-04 +7.6270573293e-05 -4.7920306663e-04 4.9945564783e-04 0.0000000000e+00 0.0000e+00 -1.0000e+00
<mgrwt>
<rscale>  2 0.12500000E+03</rscale>
<asrwt>0</asrwt>
<pdfrwt beam="1">  1       21 0.21278784E-02 0.12500000E+03</pdfrwt>
<pdfrwt beam="2">  1       21 0.39700448E-01 0.12500000E+03</pdfrwt>
<totfact> 0.65764828E+06</totfact>
</mgrwt>
</event>
<event>
 6      0 +1.3698540e+00 1.25000000e+02 7.54677100e-03 1.12640300e-01
       21 -1    0    0  502  501 +0.0000000000e+00 +0.0000000000e+00 +1.3000972469e+01 1.3000972469e+01 0.0000000000e+00 0.0000e+00 1.0000e+00
       21 -1    0    0  501  502 -0.0000000000e+00 -0.0000000000e+00 -3.0045829337e+02 3.0045829337e+02 0.0000000000e+00 0.0000e+00 1.0000e+00
       25  2    1    2    0    0 +0.0000000000e+00 +0.0000000000e+00 -2.8745732090e+02 3.1345926583e+02 1.2500000000e+02 0.0000e+00 0.0000e+00
      -15  1    3    3    0    0 -2.4798903721e+00 -4.1244434507e+01 -2.6123771838e+02 2.6449112739e+02 1.7770000000e+00 0.0000e+00 1.0000e+00
       15  1    3    3    0    0 +2.4798922501e+00 +4.1244425954e+01 -2.6219600076e+01 4.8968129380e+01 1.7770000000e+00 0.0000e+00 1.0000e+00
       22  1    3    3    0    0 -1.8779928560e-06 +8.5529860247e-06 -2.4801721740e-06 9.1011911920e-06 0.0000000000e+00 0.0000e+00 1.0000e+00
<mgrwt>
<rscale>  2 0.12500000E+03</rscale>
<asrwt>0</asrwt>
<pdfrwt beam="1">  1       21 0.19119080E-02 0.12500000E+03</pdfrwt>
<pdfrwt beam="2">  1       21 0.44185036E-01 0.12500000E+03</pdfrwt>
<totfact> 0.62428358E+06</totfact>
</mgrwt>
</event>
<event>
 6      0 +1.3698540e+00 1.25000000e+02 7.54677100e-03 1.12640300e-01
       21 -1    0    0  502  501 +0.0000000000e+00 +0.0000000000e+00 +1.6174785333e+01 1.6174785333e+01 0.0000000000e+00 0.0000e+00 -1.0000e+00
       21 -1    0    0  501  502 -0.0000000000e+00 -0.0000000000e+00 -2.4150243232e+02 2.4150243232e+02 0.0000000000e+00 0.0000e+00 -1.0000e+00
       25  2    1    2    0    0 +0.0000000000e+00 +0.0000000000e+00 -2.2532764698e+02 2.5767721765e+02 1.2500000000e+02 0.0000e+00 0.0000e+00
      -15  1    3    3    0    0 -5.8442213691e+01 +1.7584865583e+01 -9.7197791099e+01 1.1478365808e+02 1.7770000000e+00 0.0000e+00 1.0000e+00
       15  1    3    3    0    0 +5.9194133975e+01 -1.8062602946e+01 -1.2767057452e+02 1.4189128391e+02 1.7770000000e+00 0.0000e+00 1.0000e+00
       22  1    3    3    0    0 -7.5192028395e-01 +4.7773736377e-01 -4.5928133788e-01 1.0022756355e+00 0.0000000000e+00 0.0000e+00 1.0000e+00
<mgrwt>
<rscale>  2 0.12500000E+03</rscale>
<asrwt>0</asrwt>
<pdfrwt beam="1">  1       21 0.23786451E-02 0.12500000E+03</pdfrwt>
<pdfrwt beam="2">  1       21 0.35515061E-01 0.12500000E+03</pdfrwt>
<totfact> 0.69026340E+06</totfact>
</mgrwt>
</event>
<event>
 6      0 +1.3698540e+00 1.25000000e+02 7.54677100e-03 1.12640300e-01
       21 -1    0    0  502  501 +0.0000000000e+00 +0.0000000000e+00 +2.0191742742e+01 2.0191742742e+01 0.0000000000e+00 0.0000e+00 1.0000e+00
       21 -1    0    0  501  502 -0.0000000000e+00 -0.0000000000e+00 -1.9345779361e+02 1.9345779361e+02 0.0000000000e+00 0.0000e+00 1.0000e+00
       25  2    1    2    0    0 +0.0000000000e+00 +0.0000000000e+00 -1.7326605087e+02 2.1364953635e+02 1.2500000000e+02 0.0000e+00 0.0000e+00
      -15  1    3    3    0    0 -1.6683462043e+01 +4.7063853166e+01 -9.5205833536e+01 1.0752047549e+02 1.7770000000e+00 0.0000e+00 -1.0000e+00
       15  1    3    3    0    0 -1.2300213322e+01 +1.7944231887e+00 -4.8440985806e+00 1.3458760061e+01 1.7770000000e+00 0.0000e+00 -1.0000e+00
       22  1    3    3    0    0 +2.8983675365e+01 -4.8858276355e+01 -7.3216118761e+01 9.2670300811e+01 0.0000000000e+00 0.0000e+00 -1.0000e+00
<mgrwt>
<rscale>  2 0.12500000E+03</rscale>
<asrwt>0</asrwt>
<pdfrwt beam="1">  1       21 0.29693740E-02 0.12500000E+03</pdfrwt>
<pdfrwt beam="2">  1       21 0.28449675E-01 0.12500000E+03</pdfrwt>
<totfact> 0.74872025E+06</totfact>
</mgrwt>
</event>
<event>
 6      0 +1.3698540e+00 1.25000000e+02 7.54677100e-03 1.12640300e-01
       21 -1    0    0  502  501 +0.0000000000e+00 +0.0000000000e+00 +8.8207218612e+01 8.8207218612e+01 0.0000000000e+00 0.0000e+00 -1.0000e+00
       21 -1    0    0  501  502 -0.0000000000e+00 -0.0000000000e+00 -4.4284924312e+01 4.4284924312e+01 0.0000000000e+00 0.0000e+00 -1.0000e+00
       25  2    1    2    0    0 +0.0000000000e+00 +0.0000000000e+00 +4.3922294300e+01 1.3249214292e+02 1.2500000000e+02 0.0000e+00 0.0000e+00
      -15  1    3    3    0    0 +3.3524006285e+01 +8.6858520276e+00 +4.3941065388e+01 5.5975690967e+01 1.7770000000e+00 0.0000e+00 -1.0000e+00
       15  1    3    3    0    0 +6.1748616125e+00 -3.0457893082e+01 +2.0168276591e+00 3.1193548849e+01 1.7770000000e+00 0.0000e+00 -1.0000e+00
       22  1    3    3    0    0 -3.9698867897e+01 +2.1772041055e+01 -2.0355987456e+00 4.5322903109e+01 0.0000000000e+00 0.0000e+00 -1.0000e+00
<mgrwt>
<rscale>  2 0.12500000E+03</rscale>
<asrwt>0</asrwt>
<pdfrwt beam="1">  1       21 0.12971650E-01 0.12500000E+03</pdfrwt>
<pdfrwt beam="2">  1       21 0.65124888E-02 0.12500000E+03</pdfrwt>
<totfact> 0.87648343E+06</totfact>
</mgrwt>
</event>
<event>
 6      0 +1.3698540e+00 1.25000000e+02 7.54677100e-03 1.12640300e-01
       21 -1    0    0  502  501 +0.0000000000e+00 +0.0000000000e+00 +8.5152542132e+01 8.5152542132e+01 0.0000000000e+00 0.0000e+00 -1.0000e+00
       21 -1    0    0  501  502 -0.0000000000e+00 -0.0000000000e+00 -4.5873557057e+01 4.5873557057e+01 0.0000000000e+00 0.0000e+00 -1.0000e+00
       25  2    1    2    0    0 +0.0000000000e+00 +0.0000000000e+00 +3.9278985075e+01 1.3102609919e+02 1.2500000000e+02 0.0000e+00 0.0000e+00
      -15  1    3    3    0    0 +2.7547788453e+01 +4.2066143555e+01 +5.8434472252e+01 7.7111518975e+01 1.7770000000e+00 0.0000e+00 -1.0000e+00
       15  1    3    3    0    0 -2.7560008805e+01 -4.1777059816e+01 -1.8898047400e+01 5.3527289646e+01 1.7770000000e+00 0.0000e+00 -1.0000e+00
       22  1    3    3    0    0 +1.2220352242e-02 -2.8908373895e-01 -2.5743977739e-01 3.8729056807e-01 0.0000000000e+00 0.0000e+00 1.0000e+00
<mgrwt>
<rscale>  2 0.12500000E+03</rscale>
<asrwt>0</asrwt>
<pdfrwt beam="1">  1       21 0.12522433E-01 0.12500000E+03</pdfrwt>
<pdfrwt beam="2">  1       21 0.67461113E-02 0.12500000E+03</pdfrwt>
<totfact> 0.87911363E+06</totfact>
</mgrwt>
</event>
<event>
 6      0 +1.3698540e+00 1.25000000e+02 7.54677100e-03 1.12640300e-01
       21 -1    0    0  502  501 +0.0000000000e+00 +0.0000000000e+00 +2.2791733047e+02 2.2791733047e+02 0.0000000000e+00 0.0000e+00 1.0000e+00
       21 -1    0    0  501  502 -0.0000000000e+00 -0.0000000000e+00 -1.7138889754e+01 1.7138889754e+01 0.0000000000e+00 0.0000e+00 1.0000e+00
       25  2    1    2    0    0 +0.0000000000e+00 +0.0000000000e+00 +2.1077844072e+02 2.4505622023e+02 1.2500000000e+02 0.0000e+00 0.0000e+00
      -15  1    3    3    0    0 +4.0047313845e+00 -1.3402230355e+01 +4.4916572326e+00 1.4798323069e+01 1.7770000000e+00 0.0000e+00 -1.0000e+00
       15  1    3    3    0    0 -1.6442821975e+01 -3.5854220661e+01 +1.4686204275e+02 1.5207731213e+02 1.7770000000e+00 0.0000e+00 -1.0000e+00
       22  1    3    3    0    0 +1.2438090590e+01 +4.9256451016e+01 +5.9424740726e+01 7.8180585023e+01 0.0000000000e+00 0.0000e+00 -1.0000e+00
<mgrwt>
<rscale>  2 0.12500000E+03</rscale>
<asrwt>0</asrwt>
<pdfrwt beam="1">  1       21 0.33517253E-01 0.12500000E+03</pdfrwt>
<pdfrwt beam="2">  1       21 0.25204251E-02 0.12500000E+03</pdfrwt>
<totfact> 0.70643020E+06</totfact>
</mgrwt>
</event>
<event>
 6      0 +1.3698540e+00 1.25000000e+02 7.54677100e-03 1.12640300e-01
       21 -1    0    0  502  501 +0.0000000000e+00 +0.0000000000e+00 +3.3398951860e+02 3.3398951860e+02 0.0000000000e+00 0.0000e+00 1.0000e+00
       21 -1    0    0  501  502 -0.0000000000e+00 -0.0000000000e+00 -1.1695726310e+01 1.1695726310e+01 0.0000000000e+00 0.0000e+00 1.0000e+00
       25  2    1    2    0    0 +0.0000000000e+00 +0.0000000000e+00 +3.2229379229e+02 3.4568524491e+02 1.2500000000e+02 0.0000e+00 0.0000e+00
      -15  1    3    3    0    0 +6.1187166161e+01 +3.7581270814e+00 +1.3510120573e+02 1.4836942522e+02 1.7770000000e+00 0.0000e+00 -1.0000e+00
       15  1    3    3    0    0 -6.1467217000e+01 -4.4114687226e+00 +1.8560917093e+02 1.9558016742e+02 1.7770000000e+00 0.0000e+00 -1.0000e+00
       22  1    3    3    0    0 +2.8005083929e-01 +6.5334164113e-01 +1.5834156288e+00 1.7356522769e+00 0.0000000000e+00 0.0000e+00 -1.0000e+00
<mgrwt>
<rscale>  2 0.12500000E+03</rscale>
<asrwt>0</asrwt>
<pdfrwt beam="1">  1       21 0.49116099E-01 0.12500000E+03</pdfrwt>
<pdfrwt beam="2">  1       21 0.17199600E-02 0.12500000E+03</pdfrwt>
<totfact> 0.58973022E+06</totfact>
</mgrwt>
</event>
<event>
 6      0 +1.3698540e+00 1.25000000e+02 7.54677100e-03 1.12640300e-01
       21 -1    0    0  502  501 +0.0000000000e+00 +0.0000000000e+00 +8.0558327343e+02 8.0558327343e+02 0.0000000000e+00 0.0000e+00 -1.0000e+00
       21 -1    0    0  501  502 -0.0000000000e+00 -0.0000000000e+00 -4.8489710857e+00 4.8489710857e+00 0.0000000000e+00 0.0000e+00 -1.0000e+00
       25  2    1    2    0    0 +0.0000000000e+00 +0.0000000000e+00 +8.0073430234e+02 8.1043224451e+02 1.2500000000e+02 0.0000e+00 0.0000e+00
      -15  1    3    3    0    0 -1.1250061872e+01 +2.1385845569e+01 +6.7585209229e+01 7.1797190184e+01 1.7770000000e+00 0.0000e+00 -1.0000e+00
       15  1    3    3    0    0 -4.0413156314e-01 +2.9922737919e+01 +1.4092470286e+02 1.4407797602e+02 1.7770000000e+00 0.0000e+00 -1.0000e+00
       22  1    3    3    0    0 +1.1654193435e+01 -5.1308583488e+01 +5.9222439032e+02 5.9455707838e+02 0.0000000000e+00 0.0000e+00 -1.0000e+00
<mgrwt>
<rscale>  2 0.12500000E+03</rscale>
<asrwt>0</asrwt>
<pdfrwt beam="1">  1       21 0.11846804E+00 0.12500000E+03</pdfrwt>
<pdfrwt beam="2">  1       21 0.71308454E-03 0.12500000E+03</pdfrwt>
<totfact> 0.27850970E+06</totfact>
</mgrwt>
</event>
<event>
 6      0 +1.3698540e+00 1.25000000e+02 7.54677100e-03 1.12640300e-01
       21 -1    0    0  502  501 +0.0000000000e+00 +0.0000000000e+00 +1.3930282479e+02 1.3930282479e+02 0.0000000000e+00 0.0000e+00 1.0000e+00
       21 -1    0    0  501  502 -0.0000000000e+00 -0.0000000000e+00 -2.8041427055e+01 2.8041427055e+01 0.0000000000e+00 0.0000e+00 1.0000e+00
       25  2    1    2    0    0 +0.0000000000e+00 +0.0000000000e+00 +1.1126139774e+02 1.6734425185e+02 1.2500000000e+02 0.0000e+00 0.0000e+00
      -15  1    3    3    0    0 -4.1213178861e+01 +4.0295551253e+00 -6.9956463156e+00 4.2034036479e+01 1.7770000000e+00 0.0000e+00 1.0000e+00
       15  1    3    3    0    0 +4.1213170099e+01 -4.0295436329e+00 +1.1825701549e+02 1.2531018336e+02 1.7770000000e+00 0.0000e+00 1.0000e+00
       22  1    3    3    0    0 +8.7615569498e-06 -1.1492467511e-05 +2.8561677558e-05 3.2009547241e-05 0.0000000000e+00 0.0000e+00 -1.0000e+00
<mgrwt>
<rscale>  2 0.12500000E+03</rscale>
<asrwt>0</asrwt>
<pdfrwt beam="1">  1       21 0.20485709E-01 0.12500000E+03</pdfrwt>
<pdfrwt beam="2">  1       21 0.41237393E-02 0.12500000E+03</pdfrwt>
<totfact> 0.81788084E+06</totfact>
</mgrwt>
</event>
<event>
 6      0 +1.3698540e+00 1.25000000e+02 7.54677100e-03 1.12640300e-01
       21 -1    0    0  502  501 +0.0000000000e+00 +0.0000000000e+00 +1.0063158347e+01 1.0063158347e+01 0.0000000000e+00 0.0000e+00 -1.0000e+00
       21 -1    0    0  501  502 -0.0000000000e+00 -0.0000000000e+00 -3.8817336121e+02 3.8817336121e+02 0.0000000000e+00 0.0000e+00 -1.0000e+00
       25  2    1    2    0    0 +0.0000000000e+00 +0.0000000000e+00 -3.7811020287e+02 3.9823651956e+02 1.2500000000e+02 0.0000e+00 0.0000e+00
      -15  1    3    3    0    0 +3.0213032336e+01 -5.4181668832e+01 -1.6552283291e+02 1.7677512977e+02 1.7770000000e+00 0.0000e+00 1.0000e+00
       15  1    3    3    0    0 -3.0210924179e+01 +5.4181514562e+01 -2.1258067773e+02 2.2145437168e+02 1.7770000000e+00 0.0000e+00 1.0000e+00
       22  1    3    3    0    0 -2.1081570239e-03 +1.5427042781e-04 -6.6922598101e-03 7.0181526606e-03 0.0000000000e+00 0.0000e+00 1.0000e+00
<mgrwt>
<rscale>  2 0.12500000E+03</rscale>
<asrwt>0</asrwt>
<pdfrwt beam="1">  1       21 0.14798763E-02 0.12500000E+03</pdfrwt>
<pdfrwt beam="2">  1       21 0.57084315E-01 0.12500000E+03</pdfrwt>
<totfact> 0.53819124E+06</totfact>
</mgrwt>
</event>
<event>
 6      0 +1.3698540e+00 1.25000000e+02 7.54677100e-03 1.12640300e-01
       21 -1    0    0  502  501 +0.0000000000e+00 +0.0000000000e+00 +1.5756109096e+02 1.5756109096e+02 0.0000000000e+00 0.0000e+00 1.0000e+00
       21 -1    0    0  501  502 -0.0000000000e+00 -0.0000000000e+00 -2.4791971013e+01 2.4791971013e+01 0.0000000000e+00 0.0000e+00 1.0000e+00
       25  2    1    2    0    0 +0.0000000000e+00 +0.0000000000e+00 +1.3276911995e+02 1.8235306198e+02 1.2500000000e+02 0.0000e+00 0.0000e+00
      -15  1    3    3    0    0 +2.1229351624e+00 +5.6989657535e+00 +3.3822082571e-01 6.3448551354e+00 1.7770000000e+00 0.0000e+00 -1.0000e+00
       15  1    3    3    0    0 +1.6182181307e+01 +3.3072630100e+01 +5.5319569103e-02 3.6862211584e+01 1.7770000000e+00 0.0000e+00 -1.0000e+00
       22  1    3    3    0    0 -1.8305116469e+01 -3.8771595854e+01 +1.3237557955e+02 1.3914599525e+02 0.0000000000e+00 0.0000e+00 -1.0000e+00
<mgrwt>
<rscale>  2 0.12500000E+03</rscale>
<asrwt>0</asrwt>
<pdfrwt beam="1">  1       21 0.23170748E-01 0.12500000E+03</pdfrwt>
<pdfrwt beam="2">  1       21 0.36458781E-02 0.12500000E+03</pdfrwt>
<totfact> 0.79447590E+06</totfact>
</mgrwt>
</event>
<event>
 6      0 +1.3698540e+00 1.25000000e+02 7.54677100e-03 1.12640300e-01
       21 -1    0    0  502  501 +0.0000000000e+00 +0.0000000000e+00 +2.6150544692e+02 2.6150544692e+02 0.0000000000e+00 0.0000e+00 -1.0000e+00
       21 -1    0    0  501  502 -0.0000000000e+00 -0.0000000000e+00 -1.4937547366e+01 1.4937547366e+01 0.0000000000e+00 0.0000e+00 -1.0000e+00
       25  2    1    2    0    0 +0.0000000000e+00 +0.0000000000e+00 +2.4656789956e+02 2.7644299429e+02 1.2500000000e+02 0.0000e+00 0.0000e+00
      -15  1    3    3    0    0 +3.7650307701e+01 -2.0169958627e+01 +2.2457947225e+01 4.8289647168e+01 1.7770000000e+00 0.0000e+00 -1.0000e+00
       15  1    3    3    0    0 -3.7643158715e+01 +2.0172680295e+01 +2.2392381211e+02 2.2796704978e+02 1.7770000000e+00 0.0000e+00 -1.0000e+00
       22  1    3    3    0    0 -7.1489863365e-03 -2.7216682326e-03 +1.8614023834e-01 1.8629735321e-01 0.0000000000e+00 0.0000e+00 1.0000e+00
<mgrwt>
<rscale>  2 0.12500000E+03</rscale>
<asrwt>0</asrwt>
<pdfrwt beam="1">  1       21 0.38456681E-01 0.12500000E+03</pdfrwt>
<pdfrwt beam="2">  1       21 0.21966983E-02 0.12500000E+03</pdfrwt>
<totfact> 0.66717494E+06</totfact>
</mgrwt>
</event>
<event>
 6      0 +1.3698540e+00 1.25000000e+02 7.54677100e-03 1.12640300e-01
       21 -1    0    0  502  501 +0.0000000000e+00 +0.0000000000e+00 +1.8858547275e+01 1.8858547275e+01 0.0000000000e+00 0.0000e+00 1.0000e+00
       21 -1    0    0  501  502 -0.0000000000e+00 -0.0000000000e+00 -2.0713419454e+02 2.0713419454e+02 0.0000000000e+00 0.0000e+00 1.0000e+00
       25  2    1    2    0    0 +0.0000000000e+00 +0.0000000000e+00 -1.8827564726e+02 2.2599274181e+02 1.2500000000e+02 0.0000e+00 0.0000e+00
      -15  1    3    3    0    0 +8.2655599902e+00 -3.6449467284e+01 -3.6076709668e+01 5.1976627985e+01 1.7770000000e+00 0.0000e+00 -1.0000e+00
       15  1    3    3    0    0 -3.1033208673e+01 -8.0090470101e+00 -4.0657648074e+01 5.1801611465e+01 1.7770000000e+00 0.0000e+00 -1.0000e+00
       22  1    3    3    0    0 +2.2767648682e+01 +4.4458514294e+01 -1.1154128952e+02 1.2221450236e+02 0.0000000000e+00 0.0000e+00 -1.0000e+00
<mgrwt>
<rscale>  2 0.12500000E+03</rscale>
<asrwt>0</asrwt>
<pdfrwt beam="1">  1       21 0.27733156E-02 0.12500000E+03</pdfrwt>
<pdfrwt beam="2">  1       21 0.30460912E-01 0.12500000E+03</pdfrwt>
<totfact> 0.73177191E+06</totfact>
</mgrwt>
</event>
<event>
 6      0 +1.3698540e+00 1.25000000e+02 7.54677100e-03 1.12640300e-01
       21 -1    0    0  502  501 +0.0000000000e+00 +0.0000000000e+00 +6.7928279488e+02 6.7928279488e+02 0.0000000000e+00 0.0000e+00 -1.0000e+00
       21 -1    0    0  501  502 -0.0000000000e+00 -0.0000000000e+00 -5.7505504768e+00 5.7505504768e+00 0.0000000000e+00 0.0000e+00 -1.0000e+00
       25  2    1    2    0    0 +0.0000000000e+00 +0.0000000000e+00 +6.7353224441e+02 6.8503334536e+02 1.2500000000e+02 0.0000e+00 0.0000e+00
      -15  1    3    3    0    0 +2.3403295380e+01 -5.7821086549e+01 +3.5582913045e+02 3.6125962976e+02 1.7770000000e+00 0.0000e+00 1.0000e+00
       15  1    3    3    0    0 -2.3403298391e+01 +5.7821077886e+01 +3.1770306408e+02 3.2377366489e+02 1.7770000000e+00 0.0000e+00 1.0000e+00
       22  1    3    3    0    0 +3.0103227909e-06 +8.6634223706e-06 +4.9984614946e-05 5.0819077735e-05 0.0000000000e+00 0.0000e+00 1.0000e+00
<mgrwt>
<rscale>  2 0.12500000E+03</rscale>
<asrwt>0</asrwt>
<pdfrwt beam="1">  1       21 0.99894474E-01 0.12500000E+03</pdfrwt>
<pdfrwt beam="2">  1       21 0.84566965E-03 0.12500000E+03</pdfrwt>
<totfact> 0.33683523E+06</totfact>
</mgrwt>
</event>
<event>
 6      0 +1.3698540e+00 1.25000000e+02 7.54677100e-03 1.12640300e-01
       21 -1    0    0  502  501 +0.0000000000e+00 +0.0000000000e+00 +2.4630305048e+01 2.4630305048e+01 0.0000000000e+00 0.0000e+00 1.0000e+00
       21 -1    0    0  501  502 -0.0000000000e+00 -0.0000000000e+00 -1.5859527490e+02 1.5859527490e+02 0.0000000000e+00 0.0000e+00 1.0000e+00
       25  2    1    2    0    0 +0.0000000000e+00 +0.0000000000e+00 -1.3396496985e+02 1.8322557995e+02 1.2500000000e+02 0.0000e+00 0.0000e+00
      -15  1    3    3    0    0 +1.4041229430e+01 -3.3874717347e+01 -4.4030995836e+01 5.7328343099e+01 1.7770000000e+00 0.0000e+00 -1.0000e+00
       15  1    3    3    0    0 -1.7009562241e+01 +3.7768137127e+01 -1.0348911732e+02 1.1148503273e+02 1.7770000000e+00 0.0000e+00 -1.0000e+00
       22  1    3    3    0    0 +2.9683328113e+00 -3.8934197804e+00 +1.3555143311e+01 1.4412204116e+01 0.0000000000e+00 0.0000e+00 -1.0000e+00
<mgrwt>
<rscale>  2 0.12500000E+03</rscale>
<asrwt>0</asrwt>
<pdfrwt beam="1">  1       21 0.36221036E-02 0.12500000E+03</pdfrwt>
<pdfrwt beam="2">  1       21 0.23322835E-01 0.12500000E+03</pdfrwt>
<totfact> 0.79315219E+06</totfact>
</mgrwt>
</event>
<event>
 6      0 +1.3698540e+00 1.25000000e+02 7.54677100e-03 1.12640300e-01
       21 -1    0    0  502  501 +0.0000000000e+00 +0.0000000000e+00 +5.3383624339e+01 5.3383624339e+01 0.0000000000e+00 0.0000e+00 1.0000e+00
       21 -1    0    0  501  502 -0.0000000000e+00 -0.0000000000e+00 -7.3173188376e+01 7.3173188376e+01 0.0000000000e+00 0.0000e+00 1.0000e+00
       25  2    1    2    0    0 +0.0000000000e+00 +0.0000000000e+00 -1.9789564037e+01 1.2655681272e+02 1.2500000000e+02 0.0000e+00 0.0000e+00
      -15  1    3    3    0    0 -3.9424455092e+01 -9.9526494119e+00 +3.8127470319e+01 5.5769208453e+01 1.7770000000e+00 0.0000e+00 1.0000e+00
       15  1    3    3    0    0 +3.9424458592e+01 +9.9526500821e+00 -5.7917037986e+01 7.0787599175e+01 1.7770000000e+00 0.0000e+00 1.0000e+00
       22  1    3    3    0    0 -3.4996707626e-06 -6.7021097118e-07 +3.6310339641e-06 5.0873653143e-06 0.0000000000e+00 0.0000e+00 1.0000e+00
<mgrwt>
<rscale>  2 0.12500000E+03</rscale>
<asrwt>0</asrwt>
<pdfrwt beam="1">  1       21 0.78505330E-02 0.12500000E+03</pdfrwt>
<pdfrwt beam="2">  1       21 0.10760763E-01 0.12500000E+03</pdfrwt>
<totfact> 0.88711975E+06</totfact>
</mgrwt>
</event>
<event>
 6      0 +1.3698540e+00 1.25000000e+02 7.54677100e-03 1.12640300e-01
       21 -1    0    0  502  501 +0.0000000000e+00 +0.0000000000e+00 +9.7332076753e+00 9.7332076753e+00 0.0000000000e+00 0.0000e+00 -1.0000e+00
       21 -1    0    0  501  502 -0.0000000000e+00 -0.0000000000e+00 -4.0133223602e+02 4.0133223602e+02 0.0000000000e+00 0.0000e+00 -1.0000e+00
       25  2    1    2    0    0 +0.0000000000e+00 +0.0000000000e+00 -3.9159902835e+02 4.1106544370e+02 1.2500000000e+02 0.0000e+00 0.0000e+00
      -15  1    3    3    0    0 +1.1527427026e+01 -5.7795963946e+01 -2.6395971256e+02 2.7046467904e+02 1.7770000000e+00 0.0000e+00 -1.0000e+00
       15  1    3    3    0    0 -1.0936561827e+01 +5.4342854961e+01 -1.2008691720e+02 1.3227539333e+02 1.7770000000e+00 0.0000e+00 -1.0000e+00
       22  1    3    3    0    0 -5.9086519951e-01 +3.4531089847e+00 -7.5523985937e+00 8.3253713348e+00 0.0000000000e+00 0.0000e+00 -1.0000e+00
<mgrwt>
<rscale>  2 0.12500000E+03</rscale>
<asrwt>0</asrwt>
<pdfrwt beam="1">  1       21 0.14313540E-02 0.12500000E+03</pdfrwt>
<pdfrwt beam="2">  1       21 0.59019448E-01 0.12500000E+03</pdfrwt>
<totfact> 0.52645996E+06</totfact>
</mgrwt>
</event>
<event>
 6      0 +1.3698540e+00 1.25000000e+02 7.54677100e-03 1.12640300e-01
       21 -1    0    0  502  501 +0.0000000000e+00 +0.0000000000e+00 +1.5039317037e+03 1.5039317037e+03 0.0000000000e+00 0.0000e+00 -1.0000e+00
       21 -1    0    0  501  502 -0.0000000000e+00 -0.0000000000e+00 -2.5973586369e+00 2.5973586369e+00 0.0000000000e+00 0.0000e+00 -1.0000e+00
       25  2    1    2    0    0 +0.0000000000e+00 +0.0000000000e+00 +1.5013343451e+03 1.5065290624e+03 1.2500000000e+02 0.0000e+00 0.0000e+00
      -15  1    3    3    0    0 -3.5493481420e+01 +9.0521144022e+00 +6.3310139538e+02 6.3416264677e+02 1.7770000000e+00 0.0000e+00 -1.0000e+00
       15  1    3    3    0    0 +2.4502972891e+01 +2.4555242768e+01 +1.8585510744e+02 1.8907309253e+02 1.7770000000e+00 0.0000e+00 -1.0000e+00
       22  1    3    3    0    0 +1.0990508529e+01 -3.3607357170e+01 +6.8237783849e+02 6.8329331929e+02 0.0000000000e+00 0.0000e+00 -1.0000e+00
<mgrwt>
<rscale>  2 0.12500000E+03</rscale>
<asrwt>0</asrwt>
<pdfrwt beam="1">  1       21 0.22116582E+00 0.12500000E+03</pdfrwt>
<pdfrwt beam="2">  1       21 0.38196555E-03 0.12500000E+03</pdfrwt>
<totfact> 0.10518862E+06</totfact>
</mgrwt>
</event>
<event>
 6      0 +1.3698540e+00 1.25000000e+02 7.54677100e-03 1.12640300e-01
       21 -1    0    0  502  501 +0.0000000000e+00 +0.0000000000e+00 +8.4547746594e+02 8.4547746594e+02 0.0000000000e+00 0.0000e+00 -1.0000e+00
       21 -1    0    0  501  502 -0.0000000000e+00 -0.0000000000e+00 -4.6201704449e+00 4.6201704449e+00 0.0000000000e+00 0.0000e+00 -1.0000e+00
       25  2    1    2    0    0 +0.0000000000e+00 +0.0000000000e+00 +8.4085729549e+02 8.5009763638e+02 1.2500000000e+02 0.0000e+00 0.0000e+00
      -15  1    3    3    0    0 -1.6151741843e+01 +5.2263969100e+01 +5.1464055319e+02 5.1754271123e+02 1.7770000000e+00 0.0000e+00 -1.0000e+00
       15  1    3    3    0    0 -4.8338540406e-01 -4.5042128917e+01 +2.6096381464e+02 2.6482880757e+02 1.7770000000e+00 0.0000e+00 -1.0000e+00
       22  1    3    3    0    0 +1.6635127247e+01 -7.2218401827e+00 +6.5252927654e+01 6.7726117573e+01 0.0000000000e+00 0.0000e+00 -1.0000e+00
<mgrwt>
<rscale>  2 0.12500000E+03</rscale>
<asrwt>0</asrwt>
<pdfrwt beam="1">  1       21 0.12433481E+00 0.12500000E+03</pdfrwt>
<pdfrwt beam="2">  1       21 0.67943742E-03 0.12500000E+03</pdfrwt>
<totfact> 0.26269281E+06</totfact>
</mgrwt>
</event>
<event>
 6      0 +1.3698540e+00 1.25000000e+02 7.54677100e-03 1.12640300e-01
       21 -1    0    0  502  501 +0.0000000000e+00 +0.0000000000e+00 +5.0000116934e+01 5.0000116934e+01 0.0000000000e+00 0.0000e+00 1.0000e+00
       21 -1    0    0  501  502 -0.0000000000e+00 -0.0000000000e+00 -7.8124817292e+01 7.8124817292e+01 0.0000000000e+00 0.0000e+00 1.0000e+00
       25  2    1    2    0    0 +0.0000000000e+00 +0.0000000000e+00 -2.8124700358e+01 1.2812493423e+02 1.2500000000e+02 0.0000e+00 0.0000e+00
      -15  1    3    3    0    0 +2.4465429686e+01 +2.0790947244e+01 +4.0871007981e+01 5.2004016762e+01 1.7770000000e+00 0.0000e+00 1.0000e+00
       15  1    3    3    0    0 -2.4465476566e+01 -2.0790967826e+01 -6.8995674806e+01 7.6120856260e+01 1.7770000000e+00 0.0000e+00 1.0000e+00
       22  1    3    3    0    0 +4.6880726689e-05 +2.0581804137e-05 -3.3532166772e-05 6.1203099635e-05 0.0000000000e+00 0.0000e+00 -1.0000e+00
<mgrwt>
<rscale>  2 0.12500000E+03</rscale>
<asrwt>0</asrwt>
<pdfrwt beam="1">  1       21 0.73529585E-02 0.12500000E+03</pdfrwt>
<pdfrwt beam="2">  1       21 0.11488944E-01 0.12500000E+03</pdfrwt>
<totfact> 0.88435609E+06</totfact>
</mgrwt>
</event>
<event>
 6      0 +1.3698540e+00 1.25000000e+02 7.54677100e-03 1.12640300e-01
       21 -1    0    0  502  501 +0.0000000000e+00 +0.0000000000e+00 +9.3389755860e+01 9.3389755860e+01 0.0000000000e+00 0.0000e+00 1.0000e+00
       21 -1    0    0  501  502 -0.0000000000e+00 -0.0000000000e+00 -4.1827392780e+01 4.1827392780e+01 0.0000000000e+00 0.0000e+00 1.0000e+00
       25  2    1    2    0    0 +0.0000000000e+00 +0.0000000000e+00 +5.1562363080e+01 1.3521714864e+02 1.2500000000e+02 0.0000e+00 0.0000e+00
      -15  1    3    3    0    0 -4.6453520814e+01 +1.2952394254e+01 +2.7286011182e+01 5.5438057760e+01 1.7770000000e+00 0.0000e+00 -1.0000e+00
       15  1    3    3    0    0 +1.9762580099e+01 +4.5708877815e+00 +3.9474936280e+01 4.4417124070e+01 1.7770000000e+00 0.0000e+00 -1.0000e+00
       22  1    3    3    0    0 +2.6690940715e+01 -1.7523282036e+01 -1.5198584381e+01 3.5361966812e+01 0.0000000000e+00 0.0000e+00 -1.0000e+00
<mgrwt>
<rscale>  2 0.12500000E+03</rscale>
<asrwt>0</asrwt>
<pdfrwt beam="1">  1       21 0.13733788E-01 0.12500000E+03</pdfrwt>
<pdfrwt beam="2">  1       21 0.61510872E-02 0.12500000E+03</pdfrwt>
<totfact> 0.87167937E+06</totfact>
</mgrwt>
</event>
<event>
 6      0 +1.3698540e+00 1.25000000e+02 7.54677100e-03 1.12640300e-01
       21 -1    0    0  502  501 +0.0000000000e+00 +0.0000000000e+00 +8.5320496397e+02 8.5320496397e+02 0.0000000000e+00 0.0000e+00 -1.0000e+00
       21 -1    0    0  501  502 -0.0000000000e+00 -0.0000000000e+00 -4.5783254493e+00 4.5783254493e+00 0.0000000000e+00 0.0000e+00 -1.0000e+00
       25  2    1    2    0    0 +0.0000000000e+00 +0.0000000000e+00 +8.4862663852e+02 8.5778328942e+02 1.2500000000e+02 0.0000e+00 0.0000e+00
      -15  1    3    3    0    0 -1.4946806780e+00 -1.9658199797e+01 +1.8520153298e+02 1.8625639435e+02 1.7770000000e+00 0.0000e+00 -1.0000e+00
       15  1    3    3    0    0 -1.8768985080e+01 -3.7797063840e+01 +3.1437856991e+02 3.1720330356e+02 1.7770000000e+00 0.0000e+00 -1.0000e+00
       22  1    3    3    0    0 +2.0263665758e+01 +5.7455263638e+01 +3.4904653556e+02 3.5432359145e+02 0.0000000000e+00 0.0000e+00 -1.0000e+00
<mgrwt>
<rscale>  2 0.12500000E+03</rscale>
<asrwt>0</asrwt>
<pdfrwt beam="1">  1       21 0.12547121E+00 0.12500000E+03</pdfrwt>
<pdfrwt beam="2">  1       21 0.67328375E-03 0.12500000E+03</pdfrwt>
<totfact> 0.25974220E+06</totfact>
</mgrwt>
</event>
<event>
 6      0 +1.3698540e+00 1.25000000e+02 7.54677100e-03 1.12640300e-01
       21 -1    0    0  502  501 +0.0000000000e+00 +0.0000000000e+00 +1.5419754838e+02 1.5419754838e+02 0.0000000000e+00 0.0000e+00 -1.0000e+00
       21 -1    0    0  501  502 -0.0000000000e+00 -0.0000000000e+00 -2.5332763336e+01 2.5332763336e+01 0.0000000000e+00 0.0000e+00 -1.0000e+00
       25  2    1    2    0    0 +0.0000000000e+00 +0.0000000000e+00 +1.2886478504e+02 1.7953031171e+02 1.2500000000e+02 0.0000e+00 0.0000e+00
      -15  1    3    3    0    0 +3.1513921133e+01 +1.6930825126e+01 +1.1470379117e+02 1.2016612460e+02 1.7770000000e+00 0.0000e+00 -1.0000e+00
       15  1    3    3    0    0 -2.1252730260e+00 -2.5518376712e+01 +1.2882968462e+01 2.8719904959e+01 1.7770000000e+00 0.0000e+00 -1.0000e+00
       22  1    3    3    0    0 -2.9388648107e+01 +8.5875515861e+00 +1.2780254155e+00 3.0644282155e+01 0.0000000000e+00 0.0000e+00 -1.0000e+00
<mgrwt>
<rscale>  2 0.12500000E+03</rscale>
<asrwt>0</asrwt>
<pdfrwt beam="1">  1       21 0.22676110E-01 0.12500000E+03</pdfrwt>
<pdfrwt beam="2">  1       21 0.37254065E-02 0.12500000E+03</pdfrwt>
<totfact> 0.79878330E+06</totfact>
</mgrwt>
</event>
<event>
 6      0 +1.3698540e+00 1.25000000e+02 7.54677100e-03 1.12640300e-01
       21 -1    0    0  502  501 +0.0000000000e+00 +0.0000000000e+00 +3.5456565088e+01 3.5456565088e+01 0.0000000000e+00 0.0000e+00 1.0000e+00
       21 -1    0    0  501  502 -0.0000000000e+00 -0.0000000000e+00 -1.1017000633e+02 1.1017000633e+02 0.0000000000e+00 0.0000e+00 1.0000e+00
       25  2    1    2    0    0 +0.0000000000e+00 +0.0000000000e+00 -7.4713441239e+01 1.4562657141e+02 1.2500000000e+02 0.0000e+00 0.0000e+00
      -15  1    3    3    0    0 +3.4346777035e+01 -5.1009310649e+01 -2.4521621026e+01 6.6227777347e+01 1.7770000000e+00 0.0000e+00 -1.0000e+00
       15  1    3    3    0    0 -3.4346885087e+01 +5.1009857115e+01 -5.0190914937e+01 7.9397731134e+01 1.7770000000e+00 0.0000e+00 -1.0000e+00
       22  1    3    3    0    0 +1.0805222838e-04 -5.4646570861e-04 -9.0527797711e-04 1.0629338035e-03 0.0000000000e+00 0.0000e+00 1.0000e+00
<mgrwt>
<rscale>  2 0.12500000E+03</rscale>
<asrwt>0</asrwt>
<pdfrwt beam="1">  1       21 0.52142008E-02 0.12500000E+03</pdfrwt>
<pdfrwt beam="2">  1       21 0.16201471E-01 0.12500000E+03</pdfrwt>
<totfact> 0.85366687E+06</totfact>
</mgrwt>
</event>
<event>
 6      0 +1.3698540e+00 1.25000000e+02 7.54677100e-03 1.12640300e-01
       21 -1    0    0  502  501 +0.0000000000e+00 +0.0000000000e+00 +7.4340483840e+02 7.4340483840e+02 0.0000000000e+00 0.0000e+00 1.0000e+00
       21 -1    0    0  501  502 -0.0000000000e+00 -0.0000000000e+00 -5.2545393818e+00 5.2545393818e+00 0.0000000000e+00 0.0000e+00 1.0000e+00
       25  2    1    2    0    0 +0.0000000000e+00 +0.0000000000e+00 +7.3815029902e+02 7.4865937779e+02 1.2500000000e+02 0.0000e+00 0.0000e+00
      -15  1    3    3    0    0 -5.9860924116e+01 +1.7872076178e+01 +3.6589841893e+02 3.7119745695e+02 1.7770000000e+00 0.0000e+00 -1.0000e+00
       15  1    3    3    0    0 +5.9851312616e+01 -1.7866741812e+01 +3.7220807218e+02 3.7741675481e+02 1.7770000000e+00 0.0000e+00 -1.0000e+00
       22  1    3    3    0    0 +9.6115004854e-03 -5.3343658350e-03 +4.3807676242e-02 4.5165793452e-02 0.0000000000e+00 0.0000e+00 -1.0000e+00
<mgrwt>
<rscale>  2 0.12500000E+03</rscale>
<asrwt>0</asrwt>
<pdfrwt beam="1">  1       21 0.10932417E+00 0.12500000E+03</pdfrwt>
<pdfrwt beam="2">  1       21 0.77272689E-03 0.12500000E+03</pdfrwt>
<totfact> 0.30556166E+06</totfact>
</mgrwt>
</event>
<event>
 6      0 +1.3698540e+00 1.25000000e+02 7.54677100e-03 1.12640300e-01
       21 -1    0    0  502  501 +0.0000000000e+00 +0.0000000000e+00 +2.9241805899e+00 2.9241805899e+00 0.0000000000e+00 0.0000e+00 -1.0000e+00
       21 -1    0    0  501  502 -0.0000000000e+00 -0.0000000000e+00 -1.3358443092e+03 1.3358443092e+03 0.0000000000e+00 0.0000e+00 -1.0000e+00
       25  2    1    2    0    0 +0.0000000000e+00 +0.0000000000e+00 -1.3329201286e+03 1.3387684898e+03 1.2500000000e+02 0.0000e+00 0.0000e+00
      -15  1    3    3    0    0 +4.6892848702e+01 -3.3607372327e+01 -4.0971059114e+02 4.1375635458e+02 1.7770000000e+00 0.0000e+00 -1.0000e+00
       15  1    3    3    0    0 -4.6893005824e+01 +3.3607474664e+01 -9.2320794794e+02 9.2501053465e+02 1.7770000000e+00 0.0000e+00 -1.0000e+00
       22  1    3    3    0    0 +1.5712160701e-04 -1.0233727974e-04 -1.5872076476e-03 1.5982453612e-03 0.0000000000e+00 0.0000e+00 1.0000e+00
<mgrwt>
<rscale>  2 0.12500000E+03</rscale>
<asrwt>0</asrwt>
<pdfrwt beam="1">  1       21 0.43002585E-03 0.12500000E+03</pdfrwt>
<pdfrwt beam="2">  1       21 0.19644802E+00 0.12500000E+03</pdfrwt>
<totfact> 0.13239228E+06</totfact>
</mgrwt>
</event>
<event>
 6      0 +1.3698540e+00 1.25000000e+02 7.54677100e-03 1.12640300e-01
       21 -1    0    0  502  501 +0.0000000000e+00 +0.0000000000e+00 +1.1837118371e+01 1.1837118371e+01 0.0000000000e+00 0.0000e+00 1.0000e+00
       21 -1    0    0  501  502 -0.0000000000e+00 -0.0000000000e+00 -3.3000007920e+02 3.3000007920e+02 0.0000000000e+00 0.0000e+00 1.0000e+00
       25  2    1    2    0    0 +0.0000000000e+00 +0.0000000000e+00 -3.1816296083e+02 3.4183719757e+02 1.2500000000e+02 0.0000e+00 0.0000e+00
      -15  1    3    3    0    0 +3.3047670841e+01 +4.8636266597e+01 -2.1679911854e+02 2.2463893364e+02 1.7770000000e+00 0.0000e+00 -1.0000e+00
       15  1    3    3    0    0 -3.3047694477e+01 -4.8636282560e+01 -1.0136357814e+02 1.1719799825e+02 1.7770000000e+00 0.0000e+00 -1.0000e+00
       22  1    3    3    0    0 +2.3635338733e-05 +1.5962884128e-05 -2.6416423162e-04 2.6569942449e-04 0.0000000000e+00 0.0000e+00 -1.0000e+00
<mgrwt>
<rscale>  2 0.12500000E+03</rscale>
<asrwt>0</asrwt>
<pdfrwt beam="1">  1       21 0.17407526E-02 0.12500000E+03</pdfrwt>
<pdfrwt beam="2">  1       21 0.48529426E-01 0.12500000E+03</pdfrwt>
<totfact> 0.59372586E+06</totfact>
</mgrwt>
</event>
<event>
 6      0 +1.3698540e+00 1.25000000e+02 7.54677100e-03 1.12640300e-01
       21 -1    0    0  502  501 +0.0000000000e+00 +0.0000000000e+00 +4.5366072334e+02 4.5366072334e+02 0.0000000000e+00 0.0000e+00 1.0000e+00
       21 -1    0    0  501  502 -0.0000000000e+00 -0.0000000000e+00 -8.6105095703e+00 8.6105095703e+00 0.0000000000e+00 0.0000e+00 1.0000e+00
       25  2    1    2    0    0 +0.0000000000e+00 +0.0000000000e+00 +4.4505021377e+02 4.6227123291e+02 1.2500000000e+02 0.0000e+00 0.0000e+00
      -15  1    3    3    0    0 +1.4025681516e+01 -4.6339686123e+01 +1.5897814722e+02 1.6619655614e+02 1.7770000000e+00 0.0000e+00 -1.0000e+00
       15  1    3    3    0    0 +9.0320331109e+00 +1.1323330424e+01 +1.2225483476e+01 1.9037216425e+01 1.7770000000e+00 0.0000e+00 -1.0000e+00
       22  1    3    3    0    0 -2.3057714627e+01 +3.5016355699e+01 +2.7384658308e+02 2.7703746035e+02 0.0000000000e+00 0.0000e+00 -1.0000e+00
<mgrwt>
<rscale>  2 0.12500000E+03</rscale>
<asrwt>0</asrwt>
<pdfrwt beam="1">  1       21 0.66714796E-01 0.12500000E+03</pdfrwt>
<pdfrwt beam="2">  1       21 0.12662517E-02 0.12500000E+03</pdfrwt>
<totfact> 0.48267179E+06</totfact>
</mgrwt>
</event>
<event>
 6      0 +1.3698540e+00 1.25000000e+02 7.54677100e-03 1.12640300e-01
       21 -1    0    0  502  501 +0.0000000000e+00 +0.0000000000e+00 +5.4647635314e+01 5.4647635314e+01 0.0000000000e+00 0.0000e+00 -1.0000e+00
       21 -1    0    0  501  502 -0.0000000000e+00 -0.0000000000e+00 -7.1480677572e+01 7.1480677572e+01 0.0000000000e+00 0.0000e+00 -1.0000e+00
       25  2    1    2    0    0 +0.0000000000e+00 +0.0000000000e+00 -1.6833042258e+01 1.2612831289e+02 1.2500000000e+02 0.0000e+00 0.0000e+00
      -15  1    3    3    0    0 -2.1939912756e+01 +2.4522034363e+00 +3.9280825114e+01 4.5094501040e+01 1.7770000000e+00 0.0000e+00 -1.0000e+00
       15  1    3    3    0    0 +2.4404456225e+00 +1.4403941169e+01 +4.3158771029e+00 1.5336682178e+01 1.7770000000e+00 0.0000e+00 -1.0000e+00
       22  1    3    3    0    0 +1.9499467134e+01 -1.6856144605e+01 -6.0429744475e+01 6.5697129669e+01 0.0000000000e+00 0.0000e+00 -1.0000e+00
<mgrwt>
<rscale>  2 0.12500000E+03</rscale>
<asrwt>0</asrwt>
<pdfrwt beam="1">  1       21 0.80364170E-02 0.12500000E+03</pdfrwt>
<pdfrwt beam="2">  1       21 0.10511864E-01 0.12500000E+03</pdfrwt>
<totfact> 0.88788617E+06</totfact>
</mgrwt>
</event>
<event>
 6      0 +1.3698540e+00 1.25000000e+02 7.54677100e-03 1.12640300e-01
       21 -1    0    0  502  501 +0.0000000000e+00 +0.0000000000e+00 +1.5838727439e+01 1.5838727439e+01 0.0000000000e+00 0.0000e+00 1.0000e+00
       21 -1    0    0  501  502 -0.0000000000e+00 -0.0000000000e+00 -2.4662650552e+02 2.4662650552e+02 0.0000000000e+00 0.0000e+00 1.0000e+00
       25  2    1    2    0    0 +0.0000000000e+00 +0.0000000000e+00 -2.3078777808e+02 2.6246523295e+02 1.2500000000e+02 0.0000e+00 0.0000e+00
      -15  1    3    3    0    0 -8.5076147309e+00 +1.3618857714e+01 +4.7658806723e+00 1.6844112960e+01 1.7770000000e+00 0.0000e+00 -1.0000e+00
       15  1    3    3    0    0 -1.3086112814e+01 +2.1061987008e+01 -5.2841308462e+01 5.8397048335e+01 1.7770000000e+00 0.0000e+00 -1.0000e+00
       22  1    3    3    0    0 +2.1593727545e+01 -3.4680844721e+01 -1.8271235032e+02 1.8722407169e+02 0.0000000000e+00 0.0000e+00 -1.0000e+00
<mgrwt>
<rscale>  2 0.12500000E+03</rscale>
<asrwt>0</asrwt>
<pdfrwt beam="1">  1       21 0.23292251E-02 0.12500000E+03</pdfrwt>
<pdfrwt beam="2">  1       21 0.36268597E-01 0.12500000E+03</pdfrwt>
<totfact> 0.68427008E+06</totfact>
</mgrwt>
</event>
<event>
 6      0 +1.3698540e+00 1.25000000e+02 7.54677100e-03 1.12640300e-01
       21 -1    0    0  502  501 +0.0000000000e+00 +0.0000000000e+00 +9.8181505606e+01 9.8181505606e+01 0.0000000000e+00 0.0000e+00 1.0000e+00
       21 -1    0    0  501  502 -0.0000000000e+00 -0.0000000000e+00 -3.9786006294e+01 3.9786006294e+01 0.0000000000e+00 0.0000e+00 1.0000e+00
       25  2    1    2    0    0 +0.0000000000e+00 +0.0000000000e+00 +5.8395499312e+01 1.3796751190e+02 1.2500000000e+02 0.0000e+00 0.0000e+00
      -15  1    3    3    0    0 +5.1485447928e+01 -2.8214534629e+01 +6.6082929893e+00 5.9107009550e+01 1.7770000000e+00 0.0000e+00 -1.0000e+00
       15  1    3    3    0    0 -5.1768572861e+01 +2.7376646971e+01 +5.1041382276e+01 7.7703580156e+01 1.7770000000e+00 0.0000e+00 -1.0000e+00
       22  1    3    3    0    0 +2.8312493239e-01 +8.3788765794e-01 +7.4582404589e-01 1.1569221936e+00 0.0000000000e+00 0.0000e+00 -1.0000e+00
<mgrwt>
<rscale>  2 0.12500000E+03</rscale>
<asrwt>0</asrwt>
<pdfrwt beam="1">  1       21 0.14438457E-01 0.12500000E+03</pdfrwt>
<pdfrwt beam="2">  1       21 0.58508833E-02 0.12500000E+03</pdfrwt>
<totfact> 0.86690919E+06</totfact>
</mgrwt>
</event>
<event>
 6      0 +1.3698540e+00 1.25000000e+02 7.54677100e-03 1.12640300e-01
       21 -1    0    0  502  501 +0.0000000000e+00 +0.0000000000e+00 +2.2889652245e+02 2.2889652245e+02 0.0000000000e+00 0.0000e+00 1.0000e+00
       21 -1    0    0  501  502 -0.0000000000e+00 -0.0000000000e+00 -1.7065571631e+01 1.7065571631e+01 0.0000000000e+00 0.0000e+00 1.0000e+00
       25  2    1    2    0    0 +0.0000000000e+00 +0.0000000000e+00 +2.1183095082e+02 2.4596209408e+02 1.2500000000e+02 0.0000e+00 0.0000e+00
      -15  1    3    3    0    0 -5.1084599983e-01 +2.5427539654e+01 -6.3686766490e+00 2.6278099395e+01 1.7770000000e+00 0.0000e+00 1.0000e+00
       15  1    3    3    0    0 +5.1078742755e-01 -2.5427432248e+01 +2.1819901786e+02 2.1968337292e+02 1.7770000000e+00 0.0000e+00 1.0000e+00
       22  1    3    3    0    0 +5.8572279827e-05 -1.0740601792e-04 +6.0961992854e-04 6.2177425319e-04 0.0000000000e+00 0.0000e+00 -1.0000e+00
<mgrwt>
<rscale>  2 0.12500000E+03</rscale>
<asrwt>0</asrwt>
<pdfrwt beam="1">  1       21 0.33661251E-01 0.12500000E+03</pdfrwt>
<pdfrwt beam="2">  1       21 0.25096430E-02 0.12500000E+03</pdfrwt>
<totfact> 0.70525117E+06</totfact>
</mgrwt>
</event>
<event>
 6      0 +1.3698540e+00 1.25000000e+02 7.54677100e-03 1.12640300e-01
       21 -1    0    0  502  501 +0.0000000000e+00 +0.0000000000e+00 +5.0726449878e+00 5.0726449878e+00 0.0000000000e+00 0.0000e+00 1.0000e+00
       21 -1    0    0  501  502 -0.0000000000e+00 -0.0000000000e+00 -7.7006177435e+02 7.7006177435e+02 0.0000000000e+00 0.0000e+00 1.0000e+00
       25  2    1    2    0    0 +0.0000000000e+00 +0.0000000000e+00 -7.6498912937e+02 7.7513441934e+02 1.2500000000e+02 0.0000e+00 0.0000e+00
      -15  1    3    3    0    0 +8.0678822260e+00 +1.2035120599e+01 -3.6261741085e+01 3.9089723035e+01 1.7770000000e+00 0.0000e+00 -1.0000e+00
       15  1    3    3    0    0 -3.3857260457e+01 -3.4343094246e+01 -1.8310267747e+02 1.8935551335e+02 1.7770000000e+00 0.0000e+00 -1.0000e+00
       22  1    3    3    0    0 +2.5789378231e+01 +2.2307973647e+01 -5.4562471104e+02 5.4668918319e+02 0.0000000000e+00 0.0000e+00 -1.0000e+00
<mgrwt>
<rscale>  2 0.12500000E+03</rscale>
<asrwt>0</asrwt>
<pdfrwt beam="1">  1       21 0.74597722E-03 0.12500000E+03</pdfrwt>
<pdfrwt beam="2">  1       21 0.11324438E+00 0.12500000E+03</pdfrwt>
<totfact> 0.29355876E+06</totfact>
</mgrwt>
</event>
<event>
 6      0 +1.3698540e+00 1.25000000e+02 7.54677100e-03 1.12640300e-01
       21 -1    0    0  502  501 +0.0000000000e+00 +0.0000000000e+00 +4.5691147570e+01 4.5691147570e+01 0.0000000000e+00 0.0000e+00 1.0000e+00
       21 -1    0    0  501  502 -0.0000000000e+00 -0.0000000000e+00 -8.5492490509e+01 8.5492490509e+01 0.0000000000e+00 0.0000e+00 1.0000e+00
       25  2    1    2    0    0 +0.0000000000e+00 +0.0000000000e+00 -3.9801342938e+01 1.3118363808e+02 1.2500000000e+02 0.0000e+00 0.0000e+00
      -15  1    3    3    0    0 -2.9768383159e+01 +7.0990915110e+00 +1.3030756682e+01 3.3309339304e+01 1.7770000000e+00 0.0000e+00 -1.0000e+00
       15  1    3    3    0    0 +2.6469524788e+00 -3.6592479808e+01 -4.3124750308e+01 5.6647310210e+01 1.7770000000e+00 0.0000e+00 -1.0000e+00
       22  1    3    3    0    0 +2.7121430680e+01 +2.9493388297e+01 -9.7073493114e+00 4.1226988564e+01 0.0000000000e+00 0.0000e+00 -1.0000e+00
<mgrwt>
<rscale>  2 0.12500000E+03</rscale>
<asrwt>0</asrwt>
<pdfrwt beam="1">  1       21 0.67192864E-02 0.12500000E+03</pdfrwt>
<pdfrwt beam="2">  1       21 0.12572425E-01 0.12500000E+03</pdfrwt>
<totfact> 0.87882909E+06</totfact>
</mgrwt>
</event>
<event>
 6      0 +1.3698540e+00 1.25000000e+02 7.54677100e-03 1.12640300e-01
       21 -1    0    0  502  501 +0.0000000000e+00 +0.0000000000e+00 +1.3524939438e+01 1.3524939438e+01 0.0000000000e+00 0.0000e+00 1.0000e+00
       21 -1    0    0  501  502 -0.0000000000e+00 -0.0000000000e+00 -2.8881829881e+02 2.8881829881e+02 0.0000000000e+00 0.0000e+00 1.0000e+00
       25  2    1    2    0    0 +0.0000000000e+00 +0.0000000000e+00 -2.7529335938e+02 3.0234323825e+02 1.2500000000e+02 0.0000e+00 0.0000e+00
      -15  1    3    3    0    0 -3.8077419230e+01 -1.3500825447e+00 -1.2424986565e+02 1.2997268721e+02 1.7770000000e+00 0.0000e+00 -1.0000e+00
       15  1    3    3    0    0 -7.8322216216e+00 +2.8564204108e+01 -5.2711442273e+01 6.0488935578e+01 1.7770000000e+00 0.0000e+00 -1.0000e+00
       22  1    3    3    0    0 +4.5909640851e+01 -2.7214121564e+01 -9.8332051486e+01 1.1188161549e+02 0.0000000000e+00 0.0000e+00 -1.0000e+00
<mgrwt>
<rscale>  2 0.12500000E+03</rscale>
<asrwt>0</asrwt>
<pdfrwt beam="1">  1       21 0.19889618E-02 0.12500000E+03</pdfrwt>
<pdfrwt beam="2">  1       21 0.42473277E-01 0.12500000E+03</pdfrwt>
<totfact> 0.63681614E+06</totfact>
</mgrwt>
</event>
<event>
 6      0 +1.3698540e+00 1.25000000e+02 7.54677100e-03 1.12640300e-01
       21 -1    0    0  502  501 +0.0000000000e+00 +0.0000000000e+00 +2.1440022510e+01 2.1440022510e+01 0.0000000000e+00 0.0000e+00 -1.0000e+00
       21 -1    0    0  501  502 -0.0000000000e+00 -0.0000000000e+00 -1.8219430498e+02 1.8219430498e+02 0.0000000000e+00 0.0000e+00 -1.0000e+00
       25  2    1    2    0    0 +0.0000000000e+00 +0.0000000000e+00 -1.6075428247e+02 2.0363432749e+02 1.2500000000e+02 0.0000e+00 0.0000e+00
      -15  1    3    3    0    0 -4.1161687661e+01 -1.0803754630e+01 -5.6911377567e+01 7.1084937018e+01 1.7770000000e+00 0.0000e+00 -1.0000e+00
       15  1    3    3    0    0 +4.1005578723e+01 -2.0258698584e+01 -8.4084017989e+01 9.5734801222e+01 1.7770000000e+00 0.0000e+00 -1.0000e+00
       22  1    3    3    0    0 +1.5610893839e-01 +3.1062453214e+01 -1.9758886913e+01 3.6814589251e+01 0.0000000000e+00 0.0000e+00 -1.0000e+00
<mgrwt>
<rscale>  2 0.12500000E+03</rscale>
<asrwt>0</asrwt>
<pdfrwt beam="1">  1       21 0.31529444E-02 0.12500000E+03</pdfrwt>
<pdfrwt beam="2">  1       21 0.26793281E-01 0.12500000E+03</pdfrwt>
<totfact> 0.76291944E+06</totfact>
</mgrwt>
</event>
<event>
 6      0 +1.3698540e+00 1.25000000e+02 7.54677100e-03 1.12640300e-01
       21 -1    0    0  502  501 +0.0000000000e+00 +0.0000000000e+00 +3.4703027149e+01 3.4703027149e+01 0.0000000000e+00 0.0000e+00 1.0000e+00
       21 -1    0    0  501  502 -0.0000000000e+00 -0.0000000000e+00 -1.1256222644e+02 1.1256222644e+02 0.0000000000e+00 0.0000e+00 1.0000e+00
       25  2    1    2    0    0 +0.0000000000e+00 +0.0000000000e+00 -7.7859199287e+01 1.4726525359e+02 1.2500000000e+02 0.0000e+00 0.0000e+00
      -15  1    3    3    0    0 -5.2385771558e+00 -2.5949861422e+01 +3.9831088848e+00 2.6830223328e+01 1.7770000000e+00 0.0000e+00 -1.0000e+00
       15  1    3    3    0    0 +3.6345012882e+01 -5.4371159225e+00 -1.3785482154e+01 3.9290195192e+01 1.7770000000e+00 0.0000e+00 -1.0000e+00
       22  1    3    3    0    0 -3.1106435727e+01 +3.1386977344e+01 -6.8056826014e+01 8.1144835064e+01 0.0000000000e+00 0.0000e+00 -1.0000e+00
<mgrwt>
<rscale>  2 0.12500000E+03</rscale>
<asrwt>0</asrwt>
<pdfrwt beam="1">  1       21 0.51033863E-02 0.12500000E+03</pdfrwt>
<pdfrwt beam="2">  1       21 0.16553269E-01 0.12500000E+03</pdfrwt>
<totfact> 0.85087056E+06</totfact>
</mgrwt>
</event>
<event>
 6      0 +1.3698540e+00 1.25000000e+02 7.54677100e-03 1.12640300e-01
       21 -1    0    0  502  501 +0.0000000000e+00 +0.0000000000e+00 +6.9009266089e+02 6.9009266089e+02 0.0000000000e+00 0.0000e+00 -1.0000e+00
       21 -1    0    0  501  502 -0.0000000000e+00 -0.0000000000e+00 -5.6604717328e+00 5.6604717328e+00 0.0000000000e+00 0.0000e+00 -1.0000e+00
       25  2    1    2    0    0 +0.0000000000e+00 +0.0000000000e+00 +6.8443218916e+02 6.9575313262e+02 1.2500000000e+02 0.0000e+00 0.0000e+00
      -15  1    3    3    0    0 +4.9241852582e+01 -1.3414280697e+01 +1.4165514713e+02 1.5057902048e+02 1.7770000000e+00 0.0000e+00 1.0000e+00
       15  1    3    3    0    0 -4.9241986247e+01 +1.3414209631e+01 +5.4277643708e+02 5.4517348854e+02 1.7770000000e+00 0.0000e+00 1.0000e+00
       22  1    3    3    0    0 +1.3366582505e-04 +7.1066494490e-05 +6.0513510053e-04 6.2378320698e-04 0.0000000000e+00 0.0000e+00 -1.0000e+00
<mgrwt>
<rscale>  2 0.12500000E+03</rscale>
<asrwt>0</asrwt>
<pdfrwt beam="1">  1       21 0.10148416E+00 0.12500000E+03</pdfrwt>
<pdfrwt beam="2">  1       21 0.83242279E-03 0.12500000E+03</pdfrwt>
<totfact> 0.33128017E+06</totfact>
</mgrwt>
</event>
<event>
 6      0 +1.3698540e+00 1.25000000e+02 7.54677100e-03 1.12640300e-01
       21 -1    0    0  502  501 +0.0000000000e+00 +0.0000000000e+00 +1.4483683968e+02 1.4483683968e+02 0.0000000000e+00 0.0000e+00 1.0000e+00
       21 -1    0    0  501  502 -0.0000000000e+00 -0.0000000000e+00 -2.6970002995e+01 2.6970002995e+01 0.0000000000e+00 0.0000e+00 1.0000e+00
       25  2    1    2    0    0 +0.0000000000e+00 +0.0000000000e+00 +1.1786683669e+02 1.7180684268e+02 1.2500000000e+02 0.0000e+00 0.0000e+00
      -15  1    3    3    0    0 -3.2329264241e+01 +2.6485725536e+00 -1.7165869032e+00 3.2531533356e+01 1.7770000000e+00 0.0000e+00 -1.0000e+00
       15  1    3    3    0    0 +1.2894327033e+01 +2.0695190671e+01 +1.0043624585e+02 1.0336900790e+02 1.7770000000e+00 0.0000e+00 -1.0000e+00
       22  1    3    3    0    0 +1.9434937209e+01 -2.3343763225e+01 +1.9147177745e+01 3.5906301416e+01 0.0000000000e+00 0.0000e+00 -1.0000e+00
<mgrwt>
<rscale>  2 0.12500000E+03</rscale>
<asrwt>0</asrwt>
<pdfrwt beam="1">  1       21 0.21299535E-01 0.12500000E+03</pdfrwt>
<pdfrwt beam="2">  1       21 0.39661770E-02 0.12500000E+03</pdfrwt>
<totfact> 0.81078416E+06</totfact>
</mgrwt>
</event>
<event>
 6      0 +1.3698540e+00 1.25000000e+02 7.54677100e-03 1.12640300e-01
       21 -1    0    0  502  501 +0.0000000000e+00 +0.0000000000e+00 +2.2884068235e+01 2.2884068235e+01 0.0000000000e+00 0.0000e+00 1.0000e+00
       21 -1    0    0  501  502 -0.0000000000e+00 -0.0000000000e+00 -1.7069735853e+02 1.7069735853e+02 0.0000000000e+00 0.0000e+00 1.0000e+00
       25  2    1    2    0    0 +0.0000000000e+00 +0.0000000000e+00 -1.4781329029e+02 1.9358142676e+02 1.2500000000e+02 0.0000e+00 0.0000e+00
      -15  1    3    3    0    0 +9.0858344997e+00 -2.1510493783e+01 -4.5598768211e+00 2.3857995242e+01 1.7770000000e+00 0.0000e+00 -1.0000e+00
       15  1    3    3    0    0 -1.6150223076e+00 -2.3857614703e+01 -5.6407635143e+00 2.4632702214e+01 1.7770000000e+00 0.0000e+00 -1.0000e+00
       22  1    3    3    0    0 -7.4708121922e+00 +4.5368108486e+01 -1.3761264995e+02 1.4509072930e+02 0.0000000000e+00 0.0000e+00 -1.0000e+00
<mgrwt>
<rscale>  2 0.12500000E+03</rscale>
<asrwt>0</asrwt>
<pdfrwt beam="1">  1       21 0.33653041E-02 0.12500000E+03</pdfrwt>
<pdfrwt beam="2">  1       21 0.25102553E-01 0.12500000E+03</pdfrwt>
<totfact> 0.77764779E+06</totfact>
</mgrwt>
</event>
<event>
 6      0 +1.3698540e+00 1.25000000e+02 7.54677100e-03 1.12640300e-01
       21 -1    0    0  502  501 +0.0000000000e+00 +0.0000000000e+00 +1.8247823877e+02 1.8247823877e+02 0.0000000000e+00 0.0000e+00 1.0000e+00
       21 -1    0    0  501  502 -0.0000000000e+00 -0.0000000000e+00 -2.1406662112e+01 2.1406662112e+01 0.0000000000e+00 0.0000e+00 1.0000e+00
       25  2    1    2    0    0 +0.0000000000e+00 +0.0000000000e+00 +1.6107157665e+02 2.0388490088e+02 1.2500000000e+02 0.0000e+00 0.0000e+00
      -15  1    3    3    0    0 -1.5177246517e+01 +1.1182570676e+01 +3.8160725042e+01 4.2600438536e+01 1.7770000000e+00 0.0000e+00 -1.0000e+00
       15  1    3    3    0    0 -2.6341524688e+01 +2.2139346143e+01 +9.0986447528e+00 3.5636633340e+01 1.7770000000e+00 0.0000e+00 -1.0000e+00
       22  1    3    3    0    0 +4.1518771206e+01 -3.3321916819e+01 +1.1381220684e+02 1.2564782899e+02 0.0000000000e+00 0.0000e+00 -1.0000e+00
<mgrwt>
<rscale>  2 0.12500000E+03</rscale>
<asrwt>0</asrwt>
<pdfrwt beam="1">  1       21 0.26835034E-01 0.12500000E+03</pdfrwt>
<pdfrwt beam="2">  1       21 0.31480386E-02 0.12500000E+03</pdfrwt>
<totfact> 0.76255859E+06</totfact>
</mgrwt>
</event>
<event>
 6      0 +1.3698540e+00 1.25000000e+02 7.54677100e-03 1.12640300e-01
       21 -1    0    0  502  501 +0.0000000000e+00 +0.0000000000e+00 +4.5834478051e+02 4.5834478051e+02 0.0000000000e+00 0.0000e+00 1.0000e+00
       21 -1    0    0  501  502 -0.0000000000e+00 -0.0000000000e+00 -8.5225144173e+00 8.5225144173e+00 0.0000000000e+00 0.0000e+00 1.0000e+00
       25  2    1    2    0    0 +0.0000000000e+00 +0.0000000000e+00 +4.4982226609e+02 4.6686729493e+02 1.2500000000e+02 0.0000e+00 0.0000e+00
      -15  1    3    3    0    0 +6.9903426884e+00 +3.0434563888e+01 +4.2701114687e+02 4.2815511775e+02 1.7770000000e+00 0.0000e+00 1.0000e+00
       15  1    3    3    0    0 -6.9903423785e+00 -3.0434563582e+01 +2.2811112139e+01 3.8712170089e+01 1.7770000000e+00 0.0000e+00 1.0000e+00
       22  1    3    3    0    0 -3.0981899816e-07 -3.0564793287e-07 +7.0057474513e-06 7.0192525116e-06 0.0000000000e+00 0.0000e+00 -1.0000e+00
<mgrwt>
<rscale>  2 0.12500000E+03</rscale>
<asrwt>0</asrwt>
<pdfrwt beam="1">  1       21 0.67403628E-01 0.12500000E+03</pdfrwt>
<pdfrwt beam="2">  1       21 0.12533112E-02 0.12500000E+03</pdfrwt>
<totfact> 0.47895625E+06</totfact>
</mgrwt>
</event>
<event>
 6      0 +1.3698540e+00 1.25000000e+02 7.54677100e-03 1.12640300e-01
       21 -1    0    0  502  501 +0.0000000000e+00 +0.0000000000e+00 +1.3165656496e+03 1.3165656496e+03 0.0000000000e+00 0.0000e+00 1.0000e+00
       21 -1    0    0  501  502 -0.0000000000e+00 -0.0000000000e+00 -2.9669997856e+00 2.9669997856e+00 0.0000000000e+00 0.0000e+00 1.0000e+00
       25  2    1    2    0    0 +0.0000000000e+00 +0.0000000000e+00 +1.3135986498e+03 1.3195326493e+03 1.2500000000e+02 0.0000e+00 0.0000e+00
      -15  1    3    3    0    0 -1.5073554719e+01 -9.3725740643e+00 +1.2891215867e+03 1.2892450040e+03 1.7770000000e+00 0.0000e+00 -1.0000e+00
       15  1    3    3    0    0 +1.5073554733e+01 +9.3725740801e+00 +2.4477070109e+01 3.0287652390e+01 1.7770000000e+00 0.0000e+00 -1.0000e+00
       22  1    3    3    0    0 -1.4315920025e-08 -1.5812187241e-08 +8.7200917778e-07 8.7227001380e-07 0.0000000000e+00 0.0000e+00 -1.0000e+00
<mgrwt>
<rscale>  2 0.12500000E+03</rscale>
<asrwt>0</asrwt>
<pdfrwt beam="1">  1       21 0.19361219E+00 0.12500000E+03</pdfrwt>
<pdfrwt beam="2">  1       21 0.43632441E-03 0.12500000E+03</pdfrwt>
<totfact> 0.13593927E+06</totfact>
</mgrwt>
</event>
<event>
 6      0 +1.3698540e+00 1.25000000e+02 7.54677100e-03 1.12640300e-01
       21 -1    0    0  502  501 +0.0000000000e+00 +0.0000000000e+00 +8.2503688359e+02 8.2503688359e+02 0.0000000000e+00 0.0000e+00 -1.0000e+00
       21 -1    0    0  501  502 -0.0000000000e+00 -0.0000000000e+00 -4.7346368116e+00 4.7346368116e+00 0.0000000000e+00 0.0000e+00 -1.0000e+00
       25  2    1    2    0    0 +0.0000000000e+00 +0.0000000000e+00 +8.2030224678e+02 8.2977152040e+02 1.2500000000e+02 0.0000e+00 0.0000e+00
      -15  1    3    3    0    0 +2.9386039417e+00 -6.0329643686e+01 +4.9258600926e+02 4.9627858663e+02 1.7770000000e+00 0.0000e+00 -1.0000e+00
       15  1    3    3    0    0 -3.5048055359e+00 +6.0851687597e+01 +3.2176952167e+02 3.2749655624e+02 1.7770000000e+00 0.0000e+00 -1.0000e+00
       22  1    3    3    0    0 +5.6620159430e-01 -5.2204391151e-01 +5.9467159897e+00 5.9963776693e+00 0.0000000000e+00 0.0000e+00 1.0000e+00
<mgrwt>
<rscale>  2 0.12500000E+03</rscale>
<asrwt>0</asrwt>
<pdfrwt beam="1">  1       21 0.12132885E+00 0.12500000E+03</pdfrwt>
<pdfrwt beam="2">  1       21 0.69627069E-03 0.12500000E+03</pdfrwt>
<totfact> 0.27067507E+06</totfact>
</mgrwt>
</event>
<event>
 6      0 +1.3698540e+00 1.25000000e+02 7.54677100e-03 1.12640300e-01
       21 -1    0    0  502  501 +0.0000000000e+00 +0.0000000000e+00 +6.3857351635e+00 6.3857351635e+00 0.0000000000e+00 0.0000e+00 -1.0000e+00
       21 -1    0    0  501  502 -0.0000000000e+00 -0.0000000000e+00 -6.1171500227e+02 6.1171500227e+02 0.0000000000e+00 0.0000e+00 -1.0000e+00
       25  2    1    2    0    0 +0.0000000000e+00 +0.0000000000e+00 -6.0532926710e+02 6.1810073743e+02 1.2500000000e+02 0.0000e+00 0.0000e+00
      -15  1    3    3    0    0 -1.4307185037e+01 -4.5515380048e+00 -5.2151262226e+02 5.2173171741e+02 1.7770000000e+00 0.0000e+00 -1.0000e+00
       15  1    3    3    0    0 +1.4134676127e+01 -1.8919269082e+01 -4.8356369811e+01 5.3844443001e+01 1.7770000000e+00 0.0000e+00 -1.0000e+00
       22  1    3    3    0    0 +1.7250891073e-01 +2.3470807087e+01 -3.5460274954e+01 4.2524576947e+01 0.0000000000e+00 0.0000e+00 -1.0000e+00
<mgrwt>
<rscale>  2 0.12500000E+03</rscale>
<asrwt>0</asrwt>
<pdfrwt beam="1">  1       21 0.93907834E-03 0.12500000E+03</pdfrwt>
<pdfrwt beam="2">  1       21 0.89958123E-01 0.12500000E+03</pdfrwt>
<totfact> 0.37390181E+06</totfact>
</mgrwt>
</event>
<event>
 6      0 +1.3698540e+00 1.25000000e+02 7.54677100e-03 1.12640300e-01
       21 -1    0    0  502  501 +0.0000000000e+00 +0.0000000000e+00 +1.1291205019e+01 1.1291205019e+01 0.0000000000e+00 0.0000e+00 1.0000e+00
       21 -1    0    0  501  502 -0.0000000000e+00 -0.0000000000e+00 -3.4595510341e+02 3.4595510341e+02 0.0000000000e+00 0.0000e+00 1.0000e+00
       25  2    1    2    0    0 +0.0000000000e+00 +0.0000000000e+00 -3.3466389839e+02 3.5724630843e+02 1.2500000000e+02 0.0000e+00 0.0000e+00
      -15  1    3    3    0    0 -2.5749505809e+01 -1.6987865446e+01 -3.1790653595e+01 4.4333147946e+01 1.7770000000e+00 0.0000e+00 -1.0000e+00
       15  1    3    3    0    0 -1.7750667942e+01 -9.1264477167e+00 -3.5468069207e+01 4.0737205630e+01 1.7770000000e+00 0.0000e+00 -1.0000e+00
       22  1    3    3    0    0 +4.3500173751e+01 +2.6114313163e+01 -2.6740517557e+02 2.7217595484e+02 0.0000000000e+00 0.0000e+00 -1.0000e+00
<mgrwt>
<rscale>  2 0.12500000E+03</rscale>
<asrwt>0</asrwt>
<pdfrwt beam="1">  1       21 0.16604712E-02 0.12500000E+03</pdfrwt>
<pdfrwt beam="2">  1       21 0.50875754E-01 0.12500000E+03</pdfrwt>
<totfact> 0.57792015E+06</totfact>
</mgrwt>
</event>
<event>
 6      0 +1.3698540e+00 1.25000000e+02 7.54677100e-03 1.12640300e-01
       21 -1    0    0  502  501 +0.0000000000e+00 +0.0000000000e+00 +9.7959974631e+00 9.7959974631e+00 0.0000000000e+00 0.0000e+00 1.0000e+00
       21 -1    0    0  501  502 -0.0000000000e+00 -0.0000000000e+00 -3.9875980110e+02 3.9875980110e+02 0.0000000000e+00 0.0000e+00 1.0000e+00
       25  2    1    2    0    0 +0.0000000000e+00 +0.0000000000e+00 -3.8896380364e+02 4.0855579857e+02 1.2500000000e+02 0.0000e+00 0.0000e+00
      -15  1    3    3    0    0 -9.7602337568e+00 -1.2786574309e+00 -3.9797247765e+01 4.1035055580e+01 1.7770000000e+00 0.0000e+00 -1.0000e+00
       15  1    3    3    0    0 +5.1523829448e+01 +3.3896626082e+01 -1.8735467479e+02 1.9725267592e+02 1.7770000000e+00 0.0000e+00 -1.0000e+00
       22  1    3    3    0    0 -4.1763595691e+01 -3.2617968652e+01 -1.6181188104e+02 1.7026806703e+02 0.0000000000e+00 0.0000e+00 -1.0000e+00
<mgrwt>
<rscale>  2 0.12500000E+03</rscale>
<asrwt>0</asrwt>
<pdfrwt beam="1">  1       21 0.14405877E-02 0.12500000E+03</pdfrwt>
<pdfrwt beam="2">  1       21 0.58641155E-01 0.12500000E+03</pdfrwt>
<totfact> 0.52872923E+06</totfact>
</mgrwt>
</event>
<event>
 6      0 +1.3698540e+00 1.25000000e+02 7.54677100e-03 1.12640300e-01
       21 -1    0    0  502  501 +0.0000000000e+00 +0.0000000000e+00 +1.4912461002e+01 1.4912461002e+01 0.0000000000e+00 0.0000e+00 1.0000e+00
       21 -1    0    0  501  502 -0.0000000000e+00 -0.0000000000e+00 -2.6194536230e+02 2.6194536230e+02 0.0000000000e+00 0.0000e+00 1.0000e+00
       25  2    1    2    0    0 +0.0000000000e+00 +0.0000000000e+00 -2.4703290129e+02 2.7685782330e+02 1.2500000000e+02 0.0000e+00 0.0000e+00
      -15  1    3    3    0    0 -2.2095736661e+01 -4.7047676150e+01 -2.0028585959e+02 2.0692822111e+02 1.7770000000e+00 0.0000e+00 1.0000e+00
       15  1    3    3    0    0 +2.2095737064e+01 +4.7047676870e+01 -4.6747039303e+01 6.9929599654e+01 1.7770000000e+00 0.0000e+00 1.0000e+00
       22  1    3    3    0    0 -4.0203685209e-07 -7.2031158145e-07 -2.3716314228e-06 2.5109994047e-06 0.0000000000e+00 0.0000e+00 1.0000e+00
<mgrwt>
<rscale>  2 0.12500000E+03</rscale>
<asrwt>0</asrwt>
<pdfrwt beam="1">  1       21 0.21930092E-02 0.12500000E+03</pdfrwt>
<pdfrwt beam="2">  1       21 0.38521373E-01 0.12500000E+03</pdfrwt>
<totfact> 0.66667623E+06</totfact>
</mgrwt>
</event>
<event>
 6      0 +1.3698540e+00 1.25000000e+02 7.54677100e-03 1.12640300e-01
       21 -1    0    0  502  501 +0.0000000000e+00 +0.0000000000e+00 +1.4776315873e+01 1.4776315873e+01 0.0000000000e+00 0.0000e+00 1.0000e+00
       21 -1    0    0  501  502 -0.0000000000e+00 -0.0000000000e+00 -2.6435885870e+02 2.6435885870e+02 0.0000000000e+00 0.0000e+00 1.0000e+00
       25  2    1    2    0    0 +0.0000000000e+00 +0.0000000000e+00 -2.4958254283e+02 2.7913517457e+02 1.2500000000e+02 0.0000e+00 0.0000e+00
      -15  1    3    3    0    0 +4.5285851549e+01 +8.3390426902e+00 -1.1023913010e+02 1.1948293400e+02 1.7770000000e+00 0.0000e+00 -1.0000e+00
       15  1    3    3    0    0 -4.0622670275e+01 -2.2446928461e+01 -4.6842228915e+01 6.5965279325e+01 1.7770000000e+00 0.0000e+00 -1.0000e+00
       22  1    3    3    0    0 -4.6631812735e+00 +1.4107885771e+01 -9.2501183844e+01 9.3686961275e+01 0.0000000000e+00 0.0000e+00 -1.0000e+00
<mgrwt>
<rscale>  2 0.12500000E+03</rscale>
<asrwt>0</asrwt>
<pdfrwt beam="1">  1       21 0.21729876E-02 0.12500000E+03</pdfrwt>
<pdfrwt beam="2">  1       21 0.38876304E-01 0.12500000E+03</pdfrwt>
<totfact> 0.66394672E+06</totfact>
</mgrwt>
</event>
<event>
 6      0 +1.3698540e+00 1.25000000e+02 7.54677100e-03 1.12640300e-01
       21 -1    0    0  502  501 +0.0000000000e+00 +0.0000000000e+00 +8.0007989322e+00 8.0007989322e+00 0.0000000000e+00 0.0000e+00 1.0000e+00
       21 -1    0    0  501  502 -0.0000000000e+00 -0.0000000000e+00 -4.8823249192e+02 4.8823249192e+02 0.0000000000e+00 0.0000e+00 1.0000e+00
       25  2    1    2    0    0 +0.0000000000e+00 +0.0000000000e+00 -4.8023169298e+02 4.9623329085e+02 1.2500000000e+02 0.0000e+00 0.0000e+00
      -15  1    3    3    0    0 -5.3020854759e+01 -3.1369982558e+01 -2.8133472285e+02 2.8800637294e+02 1.7770000000e+00 0.0000e+00 -1.0000e+00
       15  1    3    3    0    0 +5.3020854860e+01 +3.1369982667e+01 -1.9889696928e+02 2.0822691704e+02 1.7770000000e+00 0.0000e+00 -1.0000e+00
       22  1    3    3    0    0 -1.0107668655e-07 -1.0949289882e-07 -7.6410588312e-07 7.7850047660e-07 0.0000000000e+00 0.0000e+00 -1.0000e+00
<mgrwt>
<rscale>  2 0.12500000E+03</rscale>
<asrwt>0</asrwt>
<pdfrwt beam="1">  1       21 0.11765877E-02 0.12500000E+03</pdfrwt>
<pdfrwt beam="2">  1       21 0.71798922E-01 0.12500000E+03</pdfrwt>
<totfact> 0.45607415E+06</totfact>
</mgrwt>
</event>
<event>
 6      0 +1.3698540e+00 1.25000000e+02 7.54677100e-03 1.12640300e-01
       21 -1    0    0  502  501 +0.0000000000e+00 +0.0000000000e+00 +3.5056441742e+02 3.5056441742e+02 0.0000000000e+00 0.0000e+00 -1.0000e+00
       21 -1    0    0  501  502 -0.0000000000e+00 -0.0000000000e+00 -1.1142745259e+01 1.1142745259e+01 0.0000000000e+00 0.0000e+00 -1.0000e+00
       25  2    1    2    0    0 +0.0000000000e+00 +0.0000000000e+00 +3.3942167216e+02 3.6170716267e+02 1.2500000000e+02 0.0000e+00 0.0000e+00
      -15  1    3    3    0    0 -5.5159543633e+00 +3.1708739712e+01 +1.1404935393e+02 1.1851701476e+02 1.7770000000e+00 0.0000e+00 -1.0000e+00
       15  1    3    3    0    0 -2.4332708665e+01 -1.1033538008e+01 +1.9204936254e+02 1.9390702682e+02 1.7770000000e+00 0.0000e+00 -1.0000e+00
       22  1    3    3    0    0 +2.9848663028e+01 -2.0675201704e+01 +3.3322955752e+01 4.9283121148e+01 0.0000000000e+00 0.0000e+00 -1.0000e+00
<mgrwt>
<rscale>  2 0.12500000E+03</rscale>
<asrwt>0</asrwt>
<pdfrwt beam="1">  1       21 0.51553584E-01 0.12500000E+03</pdfrwt>
<pdfrwt beam="2">  1       21 0.16386392E-02 0.12500000E+03</pdfrwt>
<totfact> 0.57343581E+06</totfact>
</mgrwt>
</event>
<event>
 6      0 +1.3698540e+00 1.25000000e+02 7.54677100e-03 1.12640300e-01
       21 -1    0    0  502  501 +0.0000000000e+00 +0.0000000000e+00 +6.5590135160e+01 6.5590135160e+01 0.0000000000e+00 0.0000e+00 -1.0000e+00
       21 -1    0    0  501  502 -0.0000000000e+00 -0.0000000000e+00 -5.9555449771e+01 5.9555449771e+01 0.0000000000e+00 0.0000e+00 -1.0000e+00
       25  2    1    2    0    0 +0.0000000000e+00 +0.0000000000e+00 +6.0346853892e+00 1.2514558493e+02 1.2500000000e+02 0.0000e+00 0.0000e+00
      -15  1    3    3    0    0 +5.4342759604e+00 -1.0067968049e+01 +5.3036822981e+01 5.4285888192e+01 1.7770000000e+00 0.0000e+00 -1.0000e+00
       15  1    3    3    0    0 -1.0049835090e+01 +1.1946213978e+01 +6.5887586285e+00 1.7037625510e+01 1.7770000000e+00 0.0000e+00 -1.0000e+00
       22  1    3    3    0    0 +4.6155591291e+00 -1.8782459292e+00 -5.3590896220e+01 5.3822071230e+01 0.0000000000e+00 0.0000e+00 -1.0000e+00
<mgrwt>
<rscale>  2 0.12500000E+03</rscale>
<asrwt>0</asrwt>
<pdfrwt beam="1">  1       21 0.96456082E-02 0.12500000E+03</pdfrwt>
<pdfrwt beam="2">  1       21 0.87581543E-02 0.12500000E+03</pdfrwt>
<totfact> 0.88971685E+06</totfact>
</mgrwt>
</event>
<event>
 6      0 +1.3698540e+00 1.25000000e+02 7.54677100e-03 1.12640300e-01
       21 -1    0    0  502  501 +0.0000000000e+00 +0.0000000000e+00 +7.0677412878e+01 7.0677412878e+01 0.0000000000e+00 0.0000e+00 -1.0000e+00
       21 -1    0    0  501  502 -0.0000000000e+00 -0.0000000000e+00 -5.5268717981e+01 5.5268717981e+01 0.0000000000e+00 0.0000e+00 -1.0000e+00
       25  2    1    2    0    0 +0.0000000000e+00 +0.0000000000e+00 +1.5408694897e+01 1.2594613086e+02 1.2500000000e+02 0.0000e+00 0.0000e+00
      -15  1    3    3    0    0 -2.6269506485e+01 +4.0718464895e+01 -2.4198300299e+01 5.4192211809e+01 1.7770000000e+00 0.0000e+00 -1.0000e+00
       15  1    3    3    0    0 +2.8326625342e+00 +5.8980432988e+00 +8.9821722877e+00 1.1253801126e+01 1.7770000000e+00 0.0000e+00 -1.0000e+00
       22  1    3    3    0    0 +2.3436843951e+01 -4.6616508194e+01 +3.0624822908e+01 6.0500117923e+01 0.0000000000e+00 0.0000e+00 -1.0000e+00
<mgrwt>
<rscale>  2 0.12500000E+03</rscale>
<asrwt>0</asrwt>
<pdfrwt beam="1">  1       21 0.10393737E-01 0.12500000E+03</pdfrwt>
<pdfrwt beam="2">  1       21 0.81277527E-02 0.12500000E+03</pdfrwt>
<totfact> 0.88821518E+06</totfact>
</mgrwt>
</event>
<event>
 6      0 +1.3698540e+00 1.25000000e+02 7.54677100e-03 1.12640300e-01
       21 -1    0    0  502  501 +0.0000000000e+00 +0.0000000000e+00 +5.9791303103e+01 5.9791303103e+01 0.0000000000e+00 0.0000e+00 -1.0000e+00
       21 -1    0    0  501  502 -0.0000000000e+00 -0.0000000000e+00 -6.5331407701e+01 6.5331407701e+01 0.0000000000e+00 0.0000e+00 -1.0000e+00
       25  2    1    2    0    0 +0.0000000000e+00 +0.0000000000e+00 -5.5401045975e+00 1.2512271080e+02 1.2500000000e+02 0.0000e+00 0.0000e+00
      -15  1    3    3    0    0 +2.6927853150e+01 +1.1097543841e+01 -4.5834340525e+01 5.4334236490e+01 1.7770000000e+00 0.0000e+00 -1.0000e+00
       15  1    3    3    0    0 +1.0619657962e+01 -1.6781427574e+01 +1.7273627329e+01 2.6380473399e+01 1.7770000000e+00 0.0000e+00 -1.0000e+00
       22  1    3    3    0    0 -3.7547511112e+01 +5.6838837328e+00 +2.3020608599e+01 4.4408000915e+01 0.0000000000e+00 0.0000e+00 -1.0000e+00
<mgrwt>
<rscale>  2 0.12500000E+03</rscale>
<asrwt>0</asrwt>
<pdfrwt beam="1">  1       21 0.87928387E-02 0.12500000E+03</pdfrwt>
<pdfrwt beam="2">  1       21 0.96075599E-02 0.12500000E+03</pdfrwt>
<totfact> 0.88976360E+06</totfact>
</mgrwt>
</event>
<event>
 6      0 +1.3698540e+00 1.25000000e+02 7.54677100e-03 1.12640300e-01
       21 -1    0    0  502  501 +0.0000000000e+00 +0.0000000000e+00 +7.3236052039e+01 7.3236052039e+01 0.0000000000e+00 0.0000e+00 -1.0000e+00
       21 -1    0    0  501  502 -0.0000000000e+00 -0.0000000000e+00 -5.3337801414e+01 5.3337801414e+01 0.0000000000e+00 0.0000e+00 -1.0000e+00
       25  2    1    2    0    0 +0.0000000000e+00 +0.0000000000e+00 +1.9898250626e+01 1.2657385345e+02 1.2500000000e+02 0.0000e+00 0.0000e+00
      -15  1    3    3    0    0 -4.7695927876e+01 +4.2891667261e+00 -3.0678276390e+01 5.6900025117e+01 1.7770000000e+00 0.0000e+00 1.0000e+00
       15  1    3    3    0    0 +4.7695706685e+01 -4.2892163928e+00 +5.0576289347e+01 6.9673499887e+01 1.7770000000e+00 0.0000e+00 1.0000e+00
       22  1    3    3    0    0 +2.2119058441e-04 +4.9666648067e-05 +2.3766913588e-04 3.2844888295e-04 0.0000000000e+00 0.0000e+00 1.0000e+00
<mgrwt>
<rscale>  2 0.12500000E+03</rscale>
<asrwt>0</asrwt>
<pdfrwt beam="1">  1       21 0.10770008E-01 0.12500000E+03</pdfrwt>
<pdfrwt beam="2">  1       21 0.78437943E-02 0.12500000E+03</pdfrwt>
<totfact> 0.88708944E+06</totfact>
</mgrwt>
</event>
<event>
 6      0 +1.3698540e+00 1.25000000e+02 7.54677100e-03 1.12640300e-01
       21 -1    0    0  502  501 +0.0000000000e+00 +0.0000000000e+00 +4.6374968656e+01 4.6374968656e+01 0.0000000000e+00 0.0000e+00 1.0000e+00
       21 -1    0    0  501  502 -0.0000000000e+00 -0.0000000000e+00 -8.4231862861e+01 8.4231862861e+01 0.0000000000e+00 0.0000e+00 1.0000e+00
       25  2    1    2    0    0 +0.0000000000e+00 +0.0000000000e+00 -3.7856894205e+01 1.3060683152e+02 1.2500000000e+02 0.0000e+00 0.0000e+00
      -15  1    3    3    0    0 +2.0038207849e+01 +2.0162577283e+01 +1.4954260569e+01 3.2169036893e+01 1.7770000000e+00 0.0000e+00 -1.0000e+00
       15  1    3    3    0    0 +5.8545833101e+00 -3.3174593320e+00 +1.9016184867e+01 2.0249807359e+01 1.7770000000e+00 0.0000e+00 -1.0000e+00
       22  1    3    3    0    0 -2.5892791159e+01 -1.6845117951e+01 -7.1827339640e+01 7.8187987265e+01 0.0000000000e+00 0.0000e+00 -1.0000e+00
<mgrwt>
<rscale>  2 0.12500000E+03</rscale>
<asrwt>0</asrwt>
<pdfrwt beam="1">  1       21 0.68198484E-02 0.12500000E+03</pdfrwt>
<pdfrwt beam="2">  1       21 0.12387039E-01 0.12500000E+03</pdfrwt>
<totfact> 0.87987339E+06</totfact>
</mgrwt>
</event>
<event>
 6      0 +1.3698540e+00 1.25000000e+02 7.54677100e-03 1.12640300e-01
       21 -1    0    0  502  501 +0.0000000000e+00 +0.0000000000e+00 +1.7664484161e+01 1.7664484161e+01 0.0000000000e+00 0.0000e+00 -1.0000e+00
       21 -1    0    0  501  502 -0.0000000000e+00 -0.0000000000e+00 -2.2113580926e+02 2.2113580926e+02 0.0000000000e+00 0.0000e+00 -1.0000e+00
       25  2    1    2    0    0 +0.0000000000e+00 +0.0000000000e+00 -2.0347132510e+02 2.3880029342e+02 1.2500000000e+02 0.0000e+00 0.0000e+00
      -15  1    3    3    0    0 +1.8769688083e+00 -5.9693795768e+01 -1.2762149723e+02 1.4091584918e+02 1.7770000000e+00 0.0000e+00 1.0000e+00
       15  1    3    3    0    0 -2.4213209576e+00 +5.9461180278e+01 -7.6543863532e+01 9.6972241021e+01 1.7770000000e+00 0.0000e+00 1.0000e+00
       22  1    3    3    0    0 +5.4435214931e-01 +2.3261548983e-01 +6.9403565867e-01 9.1220322530e-01 0.0000000000e+00 0.0000e+00 1.0000e+00
<mgrwt>
<rscale>  2 0.12500000E+03</rscale>
<asrwt>0</asrwt>
<pdfrwt beam="1">  1       21 0.25977185E-02 0.12500000E+03</pdfrwt>
<pdfrwt beam="2">  1       21 0.32519969E-01 0.12500000E+03</pdfrwt>
<totfact> 0.71465126E+06</totfact>
</mgrwt>
</event>
<event>
 6      0 +1.3698540e+00 1.25000000e+02 7.54677100e-03 1.12640300e-01
       21 -1    0    0  502  501 +0.0000000000e+00 +0.0000000000e+00 +6.7320171375e+02 6.7320171375e+02 0.0000000000e+00 0.0000e+00 -1.0000e+00
       21 -1    0    0  501  502 -0.0000000000e+00 -0.0000000000e+00 -5.8024956268e+00 5.8024956268e+00 0.0000000000e+00 0.0000e+00 -1.0000e+00
       25  2    1    2    0    0 +0.0000000000e+00 +0.0000000000e+00 +6.6739921813e+02 6.7900420938e+02 1.2500000000e+02 0.0000e+00 0.0000e+00
      -15  1    3    3    0    0 +3.2242715226e+00 +2.2523884733e+01 +2.9106440928e+01 3.6987348415e+01 1.7770000000e+00 0.0000e+00 -1.0000e+00
       15  1    3    3    0    0 +1.9051098373e+01 -2.7214153142e+01 +1.7311811006e+02 1.7628554177e+02 1.7770000000e+00 0.0000e+00 -1.0000e+00
       22  1    3    3    0    0 -2.2275369895e+01 +4.6902684097e+00 +4.6517466725e+02 4.6573131929e+02 0.0000000000e+00 0.0000e+00 -1.0000e+00
<mgrwt>
<rscale>  2 0.12500000E+03</rscale>
<asrwt>0</asrwt>
<pdfrwt beam="1">  1       21 0.99000198E-01 0.12500000E+03</pdfrwt>
<pdfrwt beam="2">  1       21 0.85330865E-03 0.12500000E+03</pdfrwt>
<totfact> 0.33999905E+06</totfact>
</mgrwt>
</event>
<event>
 6      0 +1.3698540e+00 1.25000000e+02 7.54677100e-03 1.12640300e-01
       21 -1    0    0  502  501 +0.0000000000e+00 +0.0000000000e+00 +5.0413484563e+02 5.0413484563e+02 0.0000000000e+00 0.0000e+00 1.0000e+00
       21 -1    0    0  501  502 -0.0000000000e+00 -0.0000000000e+00 -7.7484229345e+00 7.7484229345e+00 0.0000000000e+00 0.0000e+00 1.0000e+00
       25  2    1    2    0    0 +0.0000000000e+00 +0.0000000000e+00 +4.9638642270e+02 5.1188326857e+02 1.2500000000e+02 0.0000e+00 0.0000e+00
      -15  1    3    3    0    0 +2.0781614190e+01 +2.6409631001e+01 +3.2625138942e+01 4.6871116030e+01 1.7770000000e+00 0.0000e+00 1.0000e+00
       15  1    3    3    0    0 -6.3310819683e+00 -1.0909611196e+01 +1.9612241885e+02 1.9653565356e+02 1.7770000000e+00 0.0000e+00 1.0000e+00
       22  1    3    3    0    0 -1.4450532222e+01 -1.5500019805e+01 +2.6763886489e+02 2.6847649896e+02 0.0000000000e+00 0.0000e+00 1.0000e+00
<mgrwt>
<rscale>  2 0.12500000E+03</rscale>
<asrwt>0</asrwt>
<pdfrwt beam="1">  1       21 0.74137455E-01 0.12500000E+03</pdfrwt>
<pdfrwt beam="2">  1       21 0.11394743E-02 0.12500000E+03</pdfrwt>
<totfact> 0.44453873E+06</totfact>
</mgrwt>
</event>
<event>
 6      0 +1.3698540e+00 1.25000000e+02 7.54677100e-03 1.12640300e-01
       21 -1    0    0  502  501 +0.0000000000e+00 +0.0000000000e+00 +1.8718061924e+02 1.8718061924e+02 0.0000000000e+00 0.0000e+00 -1.0000e+00
       21 -1    0    0  501  502 -0.0000000000e+00 -0.0000000000e+00 -2.0868880634e+01 2.0868880634e+01 0.0000000000e+00 0.0000e+00 -1.0000e+00
       25  2    1    2    0    0 +0.0000000000e+00 +0.0000000000e+00 +1.6631173861e+02 2.0804949987e+02 1.2500000000e+02 0.0000e+00 0.0000e+00
      -15  1    3    3    0    0 -6.0466252857e+00 +4.0049627251e+01 +3.3166078809e+01 5.2380156862e+01 1.7770000000e+00 0.0000e+00 -1.0000e+00
       15  1    3    3    0    0 +2.9563487909e+01 -4.4325137792e+01 +6.8859091781e+01 8.7083005848e+01 1.7770000000e+00 0.0000e+00 -1.0000e+00
       22  1    3    3    0    0 -2.3516862624e+01 +4.2755105414e+00 +6.4286568036e+01 6.8586337182e+01 0.0000000000e+00 0.0000e+00 -1.0000e+00
<mgrwt>
<rscale>  2 0.12500000E+03</rscale>
<asrwt>0</asrwt>
<pdfrwt beam="1">  1       21 0.27526561E-01 0.12500000E+03</pdfrwt>
<pdfrwt beam="2">  1       21 0.30689531E-02 0.12500000E+03</pdfrwt>
<totfact> 0.75660455E+06</totfact>
</mgrwt>
</event>
<event>
 6      0 +1.3698540e+00 1.25000000e+02 7.54677100e-03 1.12640300e-01
       21 -1    0    0  502  501 +0.0000000000e+00 +0.0000000000e+00 +2.2815197380e+01 2.2815197380e+01 0.0000000000e+00 0.0000e+00 1.0000e+00
       21 -1    0    0  501  502 -0.0000000000e+00 -0.0000000000e+00 -1.7121263231e+02 1.7121263231e+02 0.0000000000e+00 0.0000e+00 1.0000e+00
       25  2    1    2    0    0 +0.0000000000e+00 +0.0000000000e+00 -1.4839743493e+02 1.9402782969e+02 1.2500000000e+02 0.0000e+00 0.0000e+00
      -15  1    3    3    0    0 +2.1780443205e+01 -4.6742112694e+00 -9.6136652928e+01 9.8699795959e+01 1.7770000000e+00 0.0000e+00 -1.0000e+00
       15  1    3    3    0    0 +1.3188655581e+00 -6.8213790898e+00 -6.5800105208e+01 6.6189743869e+01 1.7770000000e+00 0.0000e+00 -1.0000e+00
       22  1    3    3    0    0 -2.3099308763e+01 +1.1495590359e+01 +1.3539323207e+01 2.9138289861e+01 0.0000000000e+00 0.0000e+00 -1.0000e+00
<mgrwt>
<rscale>  2 0.12500000E+03</rscale>
<asrwt>0</asrwt>
<pdfrwt beam="1">  1       21 0.33551762E-02 0.12500000E+03</pdfrwt>
<pdfrwt beam="2">  1       21 0.25178328E-01 0.12500000E+03</pdfrwt>
<totfact> 0.77698585E+06</totfact>
</mgrwt>
</event>
<event>
 6      0 +1.3698540e+00 1.25000000e+02 7.54677100e-03 1.12640300e-01
       21 -1    0    0  502  501 +0.0000000000e+00 +0.0000000000e+00 +4.0624221262e+02 4.0624221262e+02 0.0000000000e+00 0.0000e+00 1.0000e+00
       21 -1    0    0  501  502 -0.0000000000e+00 -0.0000000000e+00 -9.6155689357e+00 9.6155689357e+00 0.0000000000e+00 0.0000e+00 1.0000e+00
       25  2    1    2    0    0 +0.0000000000e+00 +0.0000000000e+00 +3.9662664368e+02 4.1585778155e+02 1.2500000000e+02 0.0000e+00 0.0000e+00
      -15  1    3    3    0    0 -4.8041133880e+01 +7.9221299323e-01 +6.5467162044e+01 8.1226136071e+01 1.7770000000e+00 0.0000e+00 1.0000e+00
       15  1    3    3    0    0 +4.8041133851e+01 -7.9221292953e-01 +3.3115948134e+02 3.3463164517e+02 1.7770000000e+00 0.0000e+00 1.0000e+00
       22  1    3    3    0    0 +2.8631203959e-08 -6.3693079057e-08 +3.1559466588e-07 3.2322832069e-07 0.0000000000e+00 0.0000e+00 -1.0000e+00
<mgrwt>
<rscale>  2 0.12500000E+03</rscale>
<asrwt>0</asrwt>
<pdfrwt beam="1">  1       21 0.59741490E-01 0.12500000E+03</pdfrwt>
<pdfrwt beam="2">  1       21 0.14140545E-02 0.12500000E+03</pdfrwt>
<totfact> 0.52216055E+06</totfact>
</mgrwt>
</event>
<event>
 6      0 +1.3698540e+00 1.25000000e+02 7.54677100e-03 1.12640300e-01
       21 -1    0    0  502  501 +0.0000000000e+00 +0.0000000000e+00 +9.3957731557e+00 9.3957731557e+00 0.0000000000e+00 0.0000e+00 -1.0000e+00
       21 -1    0    0  501  502 -0.0000000000e+00 -0.0000000000e+00 -4.1574545652e+02 4.1574545652e+02 0.0000000000e+00 0.0000e+00 -1.0000e+00
       25  2    1    2    0    0 +0.0000000000e+00 +0.0000000000e+00 -4.0634968337e+02 4.2514122968e+02 1.2500000000e+02 0.0000e+00 0.0000e+00
      -15  1    3    3    0    0 +3.3556477660e+00 +1.0796779029e+00 -2.9884947597e+00 4.9512529963e+00 1.7770000000e+00 0.0000e+00 -1.0000e+00
       15  1    3    3    0    0 +4.2766116890e+01 +2.8875695374e+01 -1.0744985555e+02 1.1921147480e+02 1.7770000000e+00 0.0000e+00 -1.0000e+00
       22  1    3    3    0    0 -4.6121764656e+01 -2.9955373276e+01 -2.9591133308e+02 3.0097850190e+02 0.0000000000e+00 0.0000e+00 -1.0000e+00
<mgrwt>
<rscale>  2 0.12500000E+03</rscale>
<asrwt>0</asrwt>
<pdfrwt beam="1">  1       21 0.13817315E-02 0.12500000E+03</pdfrwt>
<pdfrwt beam="2">  1       21 0.61139032E-01 0.12500000E+03</pdfrwt>
<totfact> 0.51395594E+06</totfact>
</mgrwt>
</event>
<event>
 6      0 +1.3698540e+00 1.25000000e+02 7.54677100e-03 1.12640300e-01
       21 -1    0    0  502  501 +0.0000000000e+00 +0.0000000000e+00 +3.5622662537e+01 3.5622662537e+01 0.0000000000e+00 0.0000e+00 -1.0000e+00
       21 -1    0    0  501  502 -0.0000000000e+00 -0.0000000000e+00 -1.0965631769e+02 1.0965631769e+02 0.0000000000e+00 0.0000e+00 -1.0000e+00
       25  2    1    2    0    0 +0.0000000000e+00 +0.0000000000e+00 -7.4033655148e+01 1.4527898022e+02 1.2500000000e+02 0.0000e+00 0.0000e+00
      -15  1    3    3    0    0 +1.5120889405e+01 -9.6205887455e+00 -2.6106467553e+01 3.1715964455e+01 1.7770000000e+00 0.0000e+00 -1.0000e+00
       15  1    3    3    0    0 -8.8186927314e+00 +4.8816631732e+01 -5.4060044644e+01 7.3392636082e+01 1.7770000000e+00 0.0000e+00 -1.0000e+00
       22  1    3    3    0    0 -6.3021966741e+00 -3.9196042986e+01 +6.1328570455e+00 4.0170379688e+01 0.0000000000e+00 0.0000e+00 -1.0000e+00
<mgrwt>
<rscale>  2 0.12500000E+03</rscale>
<asrwt>0</asrwt>
<pdfrwt beam="1">  1       21 0.52386268E-02 0.12500000E+03</pdfrwt>
<pdfrwt beam="2">  1       21 0.16125929E-01 0.12500000E+03</pdfrwt>
<totfact> 0.85426316E+06</totfact>
</mgrwt>
</event>
<event>
 6      0 +1.3698540e+00 1.25000000e+02 7.54677100e-03 1.12640300e-01
       21 -1    0    0  502  501 +0.0000000000e+00 +0.0000000000e+00 +5.9079620472e+00 5.9079620472e+00 0.0000000000e+00 0.0000e+00 1.0000e+00
       21 -1    0    0  501  502 -0.0000000000e+00 -0.0000000000e+00 -6.6118400369e+02 6.6118400369e+02 0.0000000000e+00 0.0000e+00 1.0000e+00
       25  2    1    2    0    0 +0.0000000000e+00 +0.0000000000e+00 -6.5527604164e+02 6.6709196574e+02 1.2500000000e+02 0.0000e+00 0.0000e+00
      -15  1    3    3    0    0 +6.6928904334e+00 -6.2116016272e+00 -3.4511950437e+02 3.4524485340e+02 1.7770000000e+00 0.0000e+00 -1.0000e+00
       15  1    3    3    0    0 +1.7014677820e+01 +1.8667054040e+01 -2.8145630167e+02 2.8259293276e+02 1.7770000000e+00 0.0000e+00 -1.0000e+00
       22  1    3    3    0    0 -2.3707568254e+01 -1.2455452413e+01 -2.8700235464e+01 3.9254179434e+01 0.0000000000e+00 0.0000e+00 -1.0000e+00
<mgrwt>
<rscale>  2 0.12500000E+03</rscale>
<asrwt>0</asrwt>
<pdfrwt beam="1">  1       21 0.86881815E-03 0.12500000E+03</pdfrwt>
<pdfrwt beam="2">  1       21 0.97232919E-01 0.12500000E+03</pdfrwt>
<totfact> 0.34630097E+06</totfact>
</mgrwt>
</event>
<event>
 6      0 +1.3698540e+00 1.25000000e+02 7.54677100e-03 1.12640300e-01
       21 -1    0    0  502  501 +0.0000000000e+00 +0.0000000000e+00 +1.0880568132e+02 1.0880568132e+02 0.0000000000e+00 0.0000e+00 1.0000e+00
       21 -1    0    0  501  502 -0.0000000000e+00 -0.0000000000e+00 -3.5901158402e+01 3.5901158402e+01 0.0000000000e+00 0.0000e+00 1.0000e+00
       25  2    1    2    0    0 +0.0000000000e+00 +0.0000000000e+00 +7.2904522913e+01 1.4470683972e+02 1.2500000000e+02 0.0000e+00 0.0000e+00
      -15  1    3    3    0    0 -4.6582033058e+01 -2.2872620466e+00 +7.5508708877e+00 4.7278861573e+01 1.7770000000e+00 0.0000e+00 -1.0000e+00
       15  1    3    3    0    0 +1.0363566823e+01 +2.3624214547e+01 +9.5555568310e+00 2.7567615523e+01 1.7770000000e+00 0.0000e+00 -1.0000e+00
       22  1    3    3    0    0 +3.6218466235e+01 -2.1336952501e+01 +5.5798095193e+01 6.9860362621e+01 0.0000000000e+00 0.0000e+00 -1.0000e+00
<mgrwt>
<rscale>  2 0.12500000E+03</rscale>
<asrwt>0</asrwt>
<pdfrwt beam="1">  1       21 0.16000835E-01 0.12500000E+03</pdfrwt>
<pdfrwt beam="2">  1       21 0.52795822E-02 0.12500000E+03</pdfrwt>
<totfact> 0.85524716E+06</totfact>
</mgrwt>
</event>
<event>
 6      0 +1.3698540e+00 1.25000000e+02 7.54677100e-03 1.12640300e-01
       21 -1    0    0  502  501 +0.0000000000e+00 +0.0000000000e+00 +7.3812783527e+02 7.3812783527e+02 0.0000000000e+00 0.0000e+00 1.0000e+00
       21 -1    0    0  501  502 -0.0000000000e+00 -0.0000000000e+00 -5.2921049896e+00 5.2921049896e+00 0.0000000000e+00 0.0000e+00 1.0000e+00
       25  2    1    2    0    0 +0.0000000000e+00 +0.0000000000e+00 +7.3283573028e+02 7.4341994026e+02 1.2500000000e+02 0.0000e+00 0.0000e+00
      -15  1    3    3    0    0 -6.1152997561e+01 -1.1218985955e+01 +3.3302415512e+02 3.3878282185e+02 1.7770000000e+00 0.0000e+00 1.0000e+00
       15  1    3    3    0    0 +5.1948600988e+01 +1.0802638827e+01 +3.3970050183e+02 3.4382399977e+02 1.7770000000e+00 0.0000e+00 1.0000e+00
       22  1    3    3    0    0 +9.2043965722e+00 +4.1634712764e-01 +6.0111073303e+01 6.0813118608e+01 0.0000000000e+00 0.0000e+00 -1.0000e+00
<mgrwt>
<rscale>  2 0.12500000E+03</rscale>
<asrwt>0</asrwt>
<pdfrwt beam="1">  1       21 0.10854814E+00 0.12500000E+03</pdfrwt>
<pdfrwt beam="2">  1       21 0.77825124E-03 0.12500000E+03</pdfrwt>
<totfact> 0.30799910E+06</totfact>
</mgrwt>
</event>
<event>
 6      0 +1.3698540e+00 1.25000000e+02 7.54677100e-03 1.12640300e-01
       21 -1    0    0  502  501 +0.0000000000e+00 +0.0000000000e+00 +1.0348387389e+03 1.0348387389e+03 0.0000000000e+00 0.0000e+00 1.0000e+00
       21 -1    0    0  501  502 -0.0000000000e+00 -0.0000000000e+00 -3.7747427240e+00 3.7747427240e+00 0.0000000000e+00 0.0000e+00 1.0000e+00
       25  2    1    2    0    0 +0.0000000000e+00 +0.0000000000e+00 +1.0310639961e+03 1.0386134816e+03 1.2500000000e+02 0.0000e+00 0.0000e+00
      -15  1    3    3    0    0 -2.7936617417e+01 -5.5554097823e+00 +5.3525705887e+01 6.0658685201e+01 1.7770000000e+00 0.0000e+00 -1.0000e+00
       15  1    3    3    0    0 +2.7936615793e+01 +5.5554098974e+00 +9.7753819810e+02 9.7795470424e+02 1.7770000000e+00 0.0000e+00 -1.0000e+00
       22  1    3    3    0    0 +1.6239674636e-06 -1.1506818815e-07 +8.8570342006e-05 8.8585303488e-05 0.0000000000e+00 0.0000e+00 1.0000e+00
<mgrwt>
<rscale>  2 0.12500000E+03</rscale>
<asrwt>0</asrwt>
<pdfrwt beam="1">  1       21 0.15218197E+00 0.12500000E+03</pdfrwt>
<pdfrwt beam="2">  1       21 0.55510994E-03 0.12500000E+03</pdfrwt>
<totfact> 0.20056585E+06</totfact>
</mgrwt>
</event>
<event>
 6      0 +1.3698540e+00 1.25000000e+02 7.54677100e-03 1.12640300e-01
       21 -1    0    0  502  501 +0.0000000000e+00 +0.0000000000e+00 +7.5994833269e+00 7.5994833269e+00 0.0000000000e+00 0.0000e+00 1.0000e+00
       21 -1    0    0  501  502 -0.0000000000e+00 -0.0000000000e+00 -5.1401520761e+02 5.1401520761e+02 0.0000000000e+00 0.0000e+00 1.0000e+00
       25  2    1    2    0    0 +0.0000000000e+00 +0.0000000000e+00 -5.0641572428e+02 5.2161469094e+02 1.2500000000e+02 0.0000e+00 0.0000e+00
      -15  1    3    3    0    0 -9.7375312377e+00 +5.7953881581e+00 +3.1696145494e+00 1.1900009409e+01 1.7770000000e+00 0.0000e+00 -1.0000e+00
       15  1    3    3    0    0 +9.7423837037e+00 -5.7871810842e+00 -5.0937662106e+02 5.0950574610e+02 1.7770000000e+00 0.0000e+00 -1.0000e+00
       22  1    3    3    0    0 -4.8524659187e-03 -8.2070739135e-03 -2.0871767187e-01 2.0893532262e-01 0.0000000000e+00 0.0000e+00 1.0000e+00
<mgrwt>
<rscale>  2 0.12500000E+03</rscale>
<asrwt>0</asrwt>
<pdfrwt beam="1">  1       21 0.11175711E-02 0.12500000E+03</pdfrwt>
<pdfrwt beam="2">  1       21 0.75590470E-01 0.12500000E+03</pdfrwt>
<totfact> 0.43756487E+06</totfact>
</mgrwt>
</event>
<event>
 6      0 +1.3698540e+00 1.25000000e+02 7.54677100e-03 1.12640300e-01
       21 -1    0    0  502  501 +0.0000000000e+00 +0.0000000000e+00 +2.5140745765e+02 2.5140745765e+02 0.0000000000e+00 0.0000e+00 1.0000e+00
       21 -1    0    0  501  502 -0.0000000000e+00 -0.0000000000e+00 -1.5537526358e+01 1.5537526358e+01 0.0000000000e+00 0.0000e+00 1.0000e+00
       25  2    1    2    0    0 +0.0000000000e+00 +0.0000000000e+00 +2.3586993130e+02 2.6694498401e+02 1.2500000000e+02 0.0000e+00 0.0000e+00
      -15  1    3    3    0    0 -3.0724454772e+01 +2.6488192081e+01 +1.6480624938e+01 4.3822199490e+01 1.7770000000e+00 0.0000e+00 -1.0000e+00
       15  1    3    3    0    0 +3.0728872081e+01 -2.6496257025e+01 +2.1938497914e+02 2.2311262182e+02 1.7770000000e+00 0.0000e+00 -1.0000e+00
       22  1    3    3    0    0 -4.4173088275e-03 +8.0649445156e-03 +4.3272497146e-03 1.0162727853e-02 0.0000000000e+00 0.0000e+00 -1.0000e+00
<mgrwt>
<rscale>  2 0.12500000E+03</rscale>
<asrwt>0</asrwt>
<pdfrwt beam="1">  1       21 0.36971683E-01 0.12500000E+03</pdfrwt>
<pdfrwt beam="2">  1       21 0.22849305E-02 0.12500000E+03</pdfrwt>
<totfact> 0.67872788E+06</totfact>
</mgrwt>
</event>
<event>
 6      0 +1.3698540e+00 1.25000000e+02 7.54677100e-03 1.12640300e-01
       21 -1    0    0  502  501 +0.0000000000e+00 +0.0000000000e+00 +3.8034386217e+02 3.8034386217e+02 0.0000000000e+00 0.0000e+00 1.0000e+00
       21 -1    0    0  501  502 -0.0000000000e+00 -0.0000000000e+00 -1.0270311654e+01 1.0270311654e+01 0.0000000000e+00 0.0000e+00 1.0000e+00
       25  2    1    2    0    0 +0.0000000000e+00 +0.0000000000e+00 +3.7007355052e+02 3.9061417382e+02 1.2500000000e+02 0.0000e+00 0.0000e+00
      -15  1    3    3    0    0 +2.2912804502e+01 -2.1957595020e+01 +1.3785103148e+02 1.4146800768e+02 1.7770000000e+00 0.0000e+00 -1.0000e+00
       15  1    3    3    0    0 +3.2093018428e+01 +8.8659701874e+00 +7.5453168489e+01 8.2491851859e+01 1.7770000000e+00 0.0000e+00 -1.0000e+00
       22  1    3    3    0    0 -5.5005822930e+01 +1.3091624833e+01 +1.5676935062e+02 1.6665431434e+02 0.0000000000e+00 0.0000e+00 -1.0000e+00
<mgrwt>
<rscale>  2 0.12500000E+03</rscale>
<asrwt>0</asrwt>
<pdfrwt beam="1">  1       21 0.55932912E-01 0.12500000E+03</pdfrwt>
<pdfrwt beam="2">  1       21 0.15103402E-02 0.12500000E+03</pdfrwt>
<totfact> 0.54531883E+06</totfact>
</mgrwt>
</event>
<event>
 6      0 +1.3698540e+00 1.25000000e+02 7.54677100e-03 1.12640300e-01
       21 -1    0    0  502  501 +0.0000000000e+00 +0.0000000000e+00 +3.9373553254e+01 3.9373553254e+01 0.0000000000e+00 0.0000e+00 1.0000e+00
       21 -1    0    0  501  502 -0.0000000000e+00 -0.0000000000e+00 -9.9209994454e+01 9.9209994454e+01 0.0000000000e+00 0.0000e+00 1.0000e+00
       25  2    1    2    0    0 +0.0000000000e+00 +0.0000000000e+00 -5.9836441200e+01 1.3858354771e+02 1.2500000000e+02 0.0000e+00 0.0000e+00
      -15  1    3    3    0    0 +4.3138829295e+01 -1.9319039523e+01 -7.5209846428e+01 8.8847411948e+01 1.7770000000e+00 0.0000e+00 -1.0000e+00
       15  1    3    3    0    0 -4.3138827177e+01 +1.9319038421e+01 +1.5373404723e+01 4.9736133318e+01 1.7770000000e+00 0.0000e+00 -1.0000e+00
       22  1    3    3    0    0 -2.1187331352e-06 +1.1019333917e-06 +5.0695944627e-07 2.4413715773e-06 0.0000000000e+00 0.0000e+00 1.0000e+00
<mgrwt>
<rscale>  2 0.12500000E+03</rscale>
<asrwt>0</asrwt>
<pdfrwt beam="1">  1       21 0.57902284E-02 0.12500000E+03</pdfrwt>
<pdfrwt beam="2">  1       21 0.14589705E-01 0.12500000E+03</pdfrwt>
<totfact> 0.86584810E+06</totfact>
</mgrwt>
</event>
<event>
 6      0 +1.3698540e+00 1.25000000e+02 7.54677100e-03 1.12640300e-01
       21 -1    0    0  502  501 +0.0000000000e+00 +0.0000000000e+00 +2.2630091258e+01 2.2630091258e+01 0.0000000000e+00 0.0000e+00 -1.0000e+00
       21 -1    0    0  501  502 -0.0000000000e+00 -0.0000000000e+00 -1.7261309093e+02 1.7261309093e+02 0.0000000000e+00 0.0000e+00 -1.0000e+00
       25  2    1    2    0    0 +0.0000000000e+00 +0.0000000000e+00 -1.4998299967e+02 1.9524318219e+02 1.2500000000e+02 0.0000e+00 0.0000e+00
      -15  1    3    3    0    0 +1.3603802770e+01 -2.2508762773e+01 +8.2743227847e+00 2.7628427351e+01 1.7770000000e+00 0.0000e+00 -1.0000e+00
       15  1    3    3    0    0 -1.6009708946e+01 -1.2338422560e+01 -5.8051025640e+01 6.1494932789e+01 1.7770000000e+00 0.0000e+00 -1.0000e+00
       22  1    3    3    0    0 +2.4059061766e+00 +3.4847185333e+01 -1.0020629681e+02 1.0611982204e+02 0.0000000000e+00 0.0000e+00 -1.0000e+00
<mgrwt>
<rscale>  2 0.12500000E+03</rscale>
<asrwt>0</asrwt>
<pdfrwt beam="1">  1       21 0.33279546E-02 0.12500000E+03</pdfrwt>
<pdfrwt beam="2">  1       21 0.25384278E-01 0.12500000E+03</pdfrwt>
<totfact> 0.77518601E+06</totfact>
</mgrwt>
</event>
<event>
 6      0 +1.3698540e+00 1.25000000e+02 7.54677100e-03 1.12640300e-01
       21 -1    0    0  502  501 +0.0000000000e+00 +0.0000000000e+00 +2.3268654458e+01 2.3268654458e+01 0.0000000000e+00 0.0000e+00 -1.0000e+00
       21 -1    0    0  501  502 -0.0000000000e+00 -0.0000000000e+00 -1.6787605863e+02 1.6787605863e+02 0.0000000000e+00 0.0000e+00 -1.0000e+00
       25  2    1    2    0    0 +0.0000000000e+00 +0.0000000000e+00 -1.4460740417e+02 1.9114471309e+02 1.2500000000e+02 0.0000e+00 0.0000e+00
      -15  1    3    3    0    0 -3.4841567921e+01 -5.6634723562e+00 +1.2020830695e-01 3.5343768239e+01 1.7770000000e+00 0.0000e+00 -1.0000e+00
       15  1    3    3    0    0 +1.2106375727e+01 -1.0284425802e+01 -1.1453076944e+01 1.9663785185e+01 1.7770000000e+00 0.0000e+00 -1.0000e+00
       22  1    3    3    0    0 +2.2735192194e+01 +1.5947898158e+01 -1.3327453553e+02 1.3613715966e+02 0.0000000000e+00 0.0000e+00 -1.0000e+00
<mgrwt>
<rscale>  2 0.12500000E+03</rscale>
<asrwt>0</asrwt>
<pdfrwt beam="1">  1       21 0.34218609E-02 0.12500000E+03</pdfrwt>
<pdfrwt beam="2">  1       21 0.24687656E-01 0.12500000E+03</pdfrwt>
<totfact> 0.78126956E+06</totfact>
</mgrwt>
</event>
<event>
 6      0 +1.3698540e+00 1.25000000e+02 7.54677100e-03 1.12640300e-01
       21 -1    0    0  502  501 +0.0000000000e+00 +0.0000000000e+00 +1.0523464775e+02 1.0523464775e+02 0.0000000000e+00 0.0000e+00 -1.0000e+00
       21 -1    0    0  501  502 -0.0000000000e+00 -0.0000000000e+00 -3.7119428664e+01 3.7119428664e+01 0.0000000000e+00 0.0000e+00 -1.0000e+00
       25  2    1    2    0    0 +0.0000000000e+00 +0.0000000000e+00 +6.8115219081e+01 1.4235407641e+02 1.2500000000e+02 0.0000e+00 0.0000e+00
      -15  1    3    3    0    0 -5.0635817730e+01 +2.7375868714e+01 +6.1141367636e+01 8.3993147283e+01 1.7770000000e+00 0.0000e+00 -1.0000e+00
       15  1    3    3    0    0 +4.9254025907e+01 -2.6455699655e+01 +5.6209780895e+00 5.6219358196e+01 1.7770000000e+00 0.0000e+00 -1.0000e+00
       22  1    3    3    0    0 +1.3817918231e+00 -9.2016905939e-01 +1.3528733554e+00 2.1415709318e+00 0.0000000000e+00 0.0000e+00 -1.0000e+00
<mgrwt>
<rscale>  2 0.12500000E+03</rscale>
<asrwt>0</asrwt>
<pdfrwt beam="1">  1       21 0.15475683E-01 0.12500000E+03</pdfrwt>
<pdfrwt beam="2">  1       21 0.54587396E-02 0.12500000E+03</pdfrwt>
<totfact> 0.85932395E+06</totfact>
</mgrwt>
</event>
<event>
 6      0 +1.3698540e+00 1.25000000e+02 7.54677100e-03 1.12640300e-01
       21 -1    0    0  502  501 +0.0000000000e+00 +0.0000000000e+00 +2.6053021926e+02 2.6053021926e+02 0.0000000000e+00 0.0000e+00 -1.0000e+00
       21 -1    0    0  501  502 -0.0000000000e+00 -0.0000000000e+00 -1.4993462221e+01 1.4993462221e+01 0.0000000000e+00 0.0000e+00 -1.0000e+00
       25  2    1    2    0    0 +0.0000000000e+00 +0.0000000000e+00 +2.4553675704e+02 2.7552368149e+02 1.2500000000e+02 0.0000e+00 0.0000e+00
      -15  1    3    3    0    0 +3.9032687227e+01 -2.8763800283e+00 +8.7283020779e+01 9.5672920304e+01 1.7770000000e+00 0.0000e+00 -1.0000e+00
       15  1    3    3    0    0 -5.0605334710e+01 +8.5300031844e+00 +5.2941305703e+01 7.3753646920e+01 1.7770000000e+00 0.0000e+00 -1.0000e+00
       22  1    3    3    0    0 +1.1572647483e+01 -5.6536231561e+00 +1.0531243053e+02 1.0609711423e+02 0.0000000000e+00 0.0000e+00 -1.0000e+00
<mgrwt>
<rscale>  2 0.12500000E+03</rscale>
<asrwt>0</asrwt>
<pdfrwt beam="1">  1       21 0.38313265E-01 0.12500000E+03</pdfrwt>
<pdfrwt beam="2">  1       21 0.22049211E-02 0.12500000E+03</pdfrwt>
<totfact> 0.66828187E+06</totfact>
</mgrwt>
</event>
<event>
 6      0 +1.3698540e+00 1.25000000e+02 7.54677100e-03 1.12640300e-01
       21 -1    0    0  502  501 +0.0000000000e+00 +0.0000000000e+00 +2.5554643067e+01 2.5554643067e+01 0.0000000000e+00 0.0000e+00 1.0000e+00
       21 -1    0    0  501  502 -0.0000000000e+00 -0.0000000000e+00 -1.5285871886e+02 1.5285871886e+02 0.0000000000e+00 0.0000e+00 1.0000e+00
       25  2    1    2    0    0 +0.0000000000e+00 +0.0000000000e+00 -1.2730407579e+02 1.7841336192e+02 1.2500000000e+02 0.0000e+00 0.0000e+00
      -15  1    3    3    0    0 +3.1465159822e+01 +7.6977169934e+00 -1.1527742982e+02 1.1975539523e+02 1.7770000000e+00 0.0000e+00 -1.0000e+00
       15  1    3    3    0    0 +4.3268344288e+00 -1.8538395999e+01 -9.0180446978e+00 2.1139453199e+01 1.7770000000e+00 0.0000e+00 -1.0000e+00
       22  1    3    3    0    0 -3.5791994251e+01 +1.0840679006e+01 -3.0086012725e+00 3.7518513502e+01 0.0000000000e+00 0.0000e+00 -1.0000e+00
<mgrwt>
<rscale>  2 0.12500000E+03</rscale>
<asrwt>0</asrwt>
<pdfrwt beam="1">  1       21 0.37580358E-02 0.12500000E+03</pdfrwt>
<pdfrwt beam="2">  1       21 0.22479223E-01 0.12500000E+03</pdfrwt>
<totfact> 0.80049870E+06</totfact>
</mgrwt>
</event>
<event>
 6      0 +1.3698540e+00 1.25000000e+02 7.54677100e-03 1.12640300e-01
       21 -1    0    0  502  501 +0.0000000000e+00 +0.0000000000e+00 +5.5329629936e+00 5.5329629936e+00 0.0000000000e+00 0.0000e+00 1.0000e+00
       21 -1    0    0  501  502 -0.0000000000e+00 -0.0000000000e+00 -7.0599604670e+02 7.0599604670e+02 0.0000000000e+00 0.0000e+00 1.0000e+00
       25  2    1    2    0    0 +0.0000000000e+00 +0.0000000000e+00 -7.0046308371e+02 7.1152900969e+02 1.2500000000e+02 0.0000e+00 0.0000e+00
      -15  1    3    3    0    0 -2.5439550183e+01 -1.2133279398e+01 -3.1170188094e+02 3.1297860549e+02 1.7770000000e+00 0.0000e+00 -1.0000e+00
       15  1    3    3    0    0 -1.9991685990e+01 -1.0048644635e+01 -3.7764520305e+01 4.3931304221e+01 1.7770000000e+00 0.0000e+00 -1.0000e+00
       22  1    3    3    0    0 +4.5431236173e+01 +2.2181924033e+01 -3.5099668268e+02 3.5461910020e+02 0.0000000000e+00 0.0000e+00 -1.0000e+00
<mgrwt>
<rscale>  2 0.12500000E+03</rscale>
<asrwt>0</asrwt>
<pdfrwt beam="1">  1       21 0.81367137E-03 0.12500000E+03</pdfrwt>
<pdfrwt beam="2">  1       21 0.10382291E+00 0.12500000E+03</pdfrwt>
<totfact> 0.32333372E+06</totfact>
</mgrwt>
</event>
<event>
 6      0 +1.3698540e+00 1.25000000e+02 7.54677100e-03 1.12640300e-01
       21 -1    0    0  502  501 +0.0000000000e+00 +0.0000000000e+00 +4.8288633199e+00 4.8288633199e+00 0.0000000000e+00 0.0000e+00 -1.0000e+00
       21 -1    0    0  501  502 -0.0000000000e+00 -0.0000000000e+00 -8.0893778540e+02 8.0893778540e+02 0.0000000000e+00 0.0000e+00 -1.0000e+00
       25  2    1    2    0    0 +0.0000000000e+00 +0.0000000000e+00 -8.0410892208e+02 8.1376664872e+02 1.2500000000e+02 0.0000e+00 0.0000e+00
      -15  1    3    3    0    0 +1.6213722055e+01 -3.1843579531e+01 -2.7480701585e+02 2.7712623843e+02 1.7770000000e+00 0.0000e+00 -1.0000e+00
       15  1    3    3    0    0 -1.0012479170e+00 -2.3364417708e+01 -7.0969950421e+01 7.4744833293e+01 1.7770000000e+00 0.0000e+00 -1.0000e+00
       22  1    3    3    0    0 -1.5212474138e+01 +5.5207997239e+01 -4.5833195580e+02 4.6189557698e+02 0.0000000000e+00 0.0000e+00 -1.0000e+00
<mgrwt>
<rscale>  2 0.12500000E+03</rscale>
<asrwt>0</asrwt>
<pdfrwt beam="1">  1       21 0.71012781E-03 0.12500000E+03</pdfrwt>
<pdfrwt beam="2">  1       21 0.11896130E+00 0.12500000E+03</pdfrwt>
<totfact> 0.27714045E+06</totfact>
</mgrwt>
</event>
<event>
 6      0 +1.3698540e+00 1.25000000e+02 7.54677100e-03 1.12640300e-01
       21 -1    0    0  502  501 +0.0000000000e+00 +0.0000000000e+00 +1.1658346446e+01 1.1658346446e+01 0.0000000000e+00 0.0000e+00 -1.0000e+00
       21 -1    0    0  501  502 -0.0000000000e+00 -0.0000000000e+00 -3.3506038081e+02 3.3506038081e+02 0.0000000000e+00 0.0000e+00 -1.0000e+00
       25  2    1    2    0    0 +0.0000000000e+00 +0.0000000000e+00 -3.2340203437e+02 3.4671872726e+02 1.2500000000e+02 0.0000e+00 0.0000e+00
      -15  1    3    3    0    0 +2.0166264541e+00 -3.6498503865e+01 -6.0597381102e+01 7.0791298138e+01 1.7770000000e+00 0.0000e+00 -1.0000e+00
       15  1    3    3    0    0 -3.5400829184e+01 +2.6434915324e+01 -9.8588723235e+01 1.0805053231e+02 1.7770000000e+00 0.0000e+00 -1.0000e+00
       22  1    3    3    0    0 +3.3384202729e+01 +1.0063588541e+01 -1.6421593005e+02 1.6787689683e+02 0.0000000000e+00 0.0000e+00 -1.0000e+00
<mgrwt>
<rscale>  2 0.12500000E+03</rscale>
<asrwt>0</asrwt>
<pdfrwt beam="1">  1       21 0.17144626E-02 0.12500000E+03</pdfrwt>
<pdfrwt beam="2">  1       21 0.49273590E-01 0.12500000E+03</pdfrwt>
<totfact> 0.58866270E+06</totfact>
</mgrwt>
</event>
<event>
 6      0 +1.3698540e+00 1.25000000e+02 7.54677100e-03 1.12640300e-01
       21 -1    0    0  502  501 +0.0000000000e+00 +0.0000000000e+00 +1.0386151852e+02 1.0386151852e+02 0.0000000000e+00 0.0000e+00 -1.0000e+00
       21 -1    0    0  501  502 -0.0000000000e+00 -0.0000000000e+00 -3.7610176085e+01 3.7610176085e+01 0.0000000000e+00 0.0000e+00 -1.0000e+00
       25  2    1    2    0    0 +0.0000000000e+00 +0.0000000000e+00 +6.6251342435e+01 1.4147169461e+02 1.2500000000e+02 0.0000e+00 0.0000e+00
      -15  1    3    3    0    0 -1.8593163828e+01 +5.1012797915e+01 +5.7487932022e+01 7.9095077909e+01 1.7770000000e+00 0.0000e+00 -1.0000e+00
       15  1    3    3    0    0 +1.9275351762e+01 -5.4396959577e+01 +6.1869970682e+00 5.8068968120e+01 1.7770000000e+00 0.0000e+00 -1.0000e+00
       22  1    3    3    0    0 -6.8218793389e-01 +3.3841616621e+00 +2.5764133430e+00 4.3076485750e+00 0.0000000000e+00 0.0000e+00 1.0000e+00
<mgrwt>
<rscale>  2 0.12500000E+03</rscale>
<asrwt>0</asrwt>
<pdfrwt beam="1">  1       21 0.15273753E-01 0.12500000E+03</pdfrwt>
<pdfrwt beam="2">  1       21 0.55309082E-02 0.12500000E+03</pdfrwt>
<totfact> 0.86085495E+06</totfact>
</mgrwt>
</event>
<event>
 6      0 +1.3698540e+00 1.25000000e+02 7.54677100e-03 1.12640300e-01
       21 -1    0    0  502  501 +0.0000000000e+00 +0.0000000000e+00 +9.5585602435e+00 9.5585602435e+00 0.0000000000e+00 0.0000e+00 -1.0000e+00
       21 -1    0    0  501  502 -0.0000000000e+00 -0.0000000000e+00 -4.0866510233e+02 4.0866510233e+02 0.0000000000e+00 0.0000e+00 -1.0000e+00
       25  2    1    2    0    0 +0.0000000000e+00 +0.0000000000e+00 -3.9910654208e+02 4.1822366257e+02 1.2500000000e+02 0.0000e+00 0.0000e+00
      -15  1    3    3    0    0 -2.8544429985e+01 +3.3033952194e+01 -5.0121261363e+01 6.6493045128e+01 1.7770000000e+00 0.0000e+00 1.0000e+00
       15  1    3    3    0    0 +2.3904188293e+01 -2.9464585724e+01 -3.0608221592e+02 3.0842998016e+02 1.7770000000e+00 0.0000e+00 1.0000e+00
       22  1    3    3    0    0 +4.6402416915e+00 -3.5693664693e+00 -4.2903064766e+01 4.3300637250e+01 0.0000000000e+00 0.0000e+00 1.0000e+00
<mgrwt>
<rscale>  2 0.12500000E+03</rscale>
<asrwt>0</asrwt>
<pdfrwt beam="1">  1       21 0.14056703E-02 0.12500000E+03</pdfrwt>
<pdfrwt beam="2">  1       21 0.60097824E-01 0.12500000E+03</pdfrwt>
<totfact> 0.52005404E+06</totfact>
</mgrwt>
</event>
<event>
 6      0 +1.3698540e+00 1.25000000e+02 7.54677100e-03 1.12640300e-01
       21 -1    0    0  502  501 +0.0000000000e+00 +0.0000000000e+00 +1.8439485260e+02 1.8439485260e+02 0.0000000000e+00 0.0000e+00 -1.0000e+00
       21 -1    0    0  501  502 -0.0000000000e+00 -0.0000000000e+00 -2.1184159671e+01 2.1184159671e+01 0.0000000000e+00 0.0000e+00 -1.0000e+00
       25  2    1    2    0    0 +0.0000000000e+00 +0.0000000000e+00 +1.6321069293e+02 2.0557901227e+02 1.2500000000e+02 0.0000e+00 0.0000e+00
      -15  1    3    3    0    0 +1.7746660155e+01 +4.4051726389e+01 +1.4828300724e+02 1.5571289770e+02 1.7770000000e+00 0.0000e+00 -1.0000e+00
       15  1    3    3    0    0 -1.6274102230e+01 -4.1767131824e+01 +1.4026061138e+01 4.7002423599e+01 1.7770000000e+00 0.0000e+00 -1.0000e+00
       22  1    3    3    0    0 -1.4725579256e+00 -2.2845945655e+00 +9.0162455481e-01 2.8636909768e+00 0.0000000000e+00 0.0000e+00 -1.0000e+00
<mgrwt>
<rscale>  2 0.12500000E+03</rscale>
<asrwt>0</asrwt>
<pdfrwt beam="1">  1       21 0.27116889E-01 0.12500000E+03</pdfrwt>
<pdfrwt beam="2">  1       21 0.31153177E-02 0.12500000E+03</pdfrwt>
<totfact> 0.76012673E+06</totfact>
</mgrwt>
</event>
<event>
 6      0 +1.3698540e+00 1.25000000e+02 7.54677100e-03 1.12640300e-01
       21 -1    0    0  502  501 +0.0000000000e+00 +0.0000000000e+00 +1.2335322547e+02 1.2335322547e+02 0.0000000000e+00 0.0000e+00 1.0000e+00
       21 -1    0    0  501  502 -0.0000000000e+00 -0.0000000000e+00 -3.1667189771e+01 3.1667189771e+01 0.0000000000e+00 0.0000e+00 1.0000e+00
       25  2    1    2    0    0 +0.0000000000e+00 +0.0000000000e+00 +9.1686035703e+01 1.5502041525e+02 1.2500000000e+02 0.0000e+00 0.0000e+00
      -15  1    3    3    0    0 +1.7373530234e+01 -8.5198122000e+00 -8.8079539036e+00 2.1334585388e+01 1.7770000000e+00 0.0000e+00 -1.0000e+00
       15  1    3    3    0    0 +2.3845505703e+01 -1.9345006767e+01 +6.6959661482e+01 7.3685761337e+01 1.7770000000e+00 0.0000e+00 -1.0000e+00
       22  1    3    3    0    0 -4.1219035937e+01 +2.7864818967e+01 +3.3534328121e+01 6.0000068519e+01 0.0000000000e+00 0.0000e+00 -1.0000e+00
<mgrwt>
<rscale>  2 0.12500000E+03</rscale>
<asrwt>0</asrwt>
<pdfrwt beam="1">  1       21 0.18140180E-01 0.12500000E+03</pdfrwt>
<pdfrwt beam="2">  1       21 0.46569397E-02 0.12500000E+03</pdfrwt>
<totfact> 0.83792071E+06</totfact>
</mgrwt>
</event>
<event>
 6      0 +1.3698540e+00 1.25000000e+02 7.54677100e-03 1.12640300e-01
       21 -1    0    0  502  501 +0.0000000000e+00 +0.0000000000e+00 +5.1483538387e+01 5.1483538387e+01 0.0000000000e+00 0.0000e+00 1.0000e+00
       21 -1    0    0  501  502 -0.0000000000e+00 -0.0000000000e+00 -7.5873767079e+01 7.5873767079e+01 0.0000000000e+00 0.0000e+00 1.0000e+00
       25  2    1    2    0    0 +0.0000000000e+00 +0.0000000000e+00 -2.4390228691e+01 1.2735730547e+02 1.2500000000e+02 0.0000e+00 0.0000e+00
      -15  1    3    3    0    0 -1.9979115176e+01 -5.7105061224e+01 +3.6771374246e+00 6.0636887529e+01 1.7770000000e+00 0.0000e+00 -1.0000e+00
       15  1    3    3    0    0 +1.9976323358e+01 +5.7104970324e+01 -2.8069919087e+01 6.6716633737e+01 1.7770000000e+00 0.0000e+00 -1.0000e+00
       22  1    3    3    0    0 +2.7918183470e-03 +9.0899580575e-05 +2.5529713456e-03 3.7842007225e-03 0.0000000000e+00 0.0000e+00 1.0000e+00
<mgrwt>
<rscale>  2 0.12500000E+03</rscale>
<asrwt>0</asrwt>
<pdfrwt beam="1">  1       21 0.75711087E-02 0.12500000E+03</pdfrwt>
<pdfrwt beam="2">  1       21 0.11157907E-01 0.12500000E+03</pdfrwt>
<totfact> 0.88570519E+06</totfact>
</mgrwt>
</event>
<event>
 6      0 +1.3698540e+00 1.25000000e+02 7.54677100e-03 1.12640300e-01
       21 -1    0    0  502  501 +0.0000000000e+00 +0.0000000000e+00 +1.3054531564e+01 1.3054531564e+01 0.0000000000e+00 0.0000e+00 1.0000e+00
       21 -1    0    0  501  502 -0.0000000000e+00 -0.0000000000e+00 -2.9922559694e+02 2.9922559694e+02 0.0000000000e+00 0.0000e+00 1.0000e+00
       25  2    1    2    0    0 +0.0000000000e+00 +0.0000000000e+00 -2.8617106538e+02 3.1228012851e+02 1.2500000000e+02 0.0000e+00 0.0000e+00
      -15  1    3    3    0    0 +6.0937259668e+00 -5.9048954930e+00 -1.2981898720e+02 1.3010814138e+02 1.7770000000e+00 0.0000e+00 -1.0000e+00
       15  1    3    3    0    0 +2.0227720931e+01 -2.7304693563e+01 -1.2475691355e+02 1.2931416084e+02 1.7770000000e+00 0.0000e+00 -1.0000e+00
       22  1    3    3    0    0 -2.6321446898e+01 +3.3209589056e+01 -3.1595164619e+01 5.2857826283e+01 0.0000000000e+00 0.0000e+00 -1.0000e+00
<mgrwt>
<rscale>  2 0.12500000E+03</rscale>
<asrwt>0</asrwt>
<pdfrwt beam="1">  1       21 0.19197838E-02 0.12500000E+03</pdfrwt>
<pdfrwt beam="2">  1       21 0.44003770E-01 0.12500000E+03</pdfrwt>
<totfact> 0.62559714E+06</totfact>
</mgrwt>
</event>
<event>
 6      0 +1.3698540e+00 1.25000000e+02 7.54677100e-03 1.12640300e-01
       21 -1    0    0  502  501 +0.0000000000e+00 +0.0000000000e+00 +1.4052625813e+01 1.4052625813e+01 0.0000000000e+00 0.0000e+00 1.0000e+00
       21 -1    0    0  501  502 -0.0000000000e+00 -0.0000000000e+00 -2.7797296049e+02 2.7797296049e+02 0.0000000000e+00 0.0000e+00 1.0000e+00
       25  2    1    2    0    0 +0.0000000000e+00 +0.0000000000e+00 -2.6392033468e+02 2.9202558631e+02 1.2500000000e+02 0.0000e+00 0.0000e+00
      -15  1    3    3    0    0 -1.8125564366e+01 +2.1473794703e+01 -1.8721267376e+01 3.3812771606e+01 1.7770000000e+00 0.0000e+00 -1.0000e+00
       15  1    3    3    0    0 -2.4354747831e+01 +1.1429844038e+01 -7.2700339715e+01 7.7538972139e+01 1.7770000000e+00 0.0000e+00 -1.0000e+00
       22  1    3    3    0    0 +4.2480312197e+01 -3.2903638741e+01 -1.7249872757e+02 1.8067384255e+02 0.0000000000e+00 0.0000e+00 -1.0000e+00
<mgrwt>
<rscale>  2 0.12500000E+03</rscale>
<asrwt>0</asrwt>
<pdfrwt beam="1">  1       21 0.20665628E-02 0.12500000E+03</pdfrwt>
<pdfrwt beam="2">  1       21 0.40878372E-01 0.12500000E+03</pdfrwt>
<totfact> 0.64873187E+06</totfact>
</mgrwt>
</event>
<event>
 6      0 +1.3698540e+00 1.25000000e+02 7.54677100e-03 1.12640300e-01
       21 -1    0    0  502  501 +0.0000000000e+00 +0.0000000000e+00 +1.6481785204e+01 1.6481785204e+01 0.0000000000e+00 0.0000e+00 -1.0000e+00
       21 -1    0    0  501  502 -0.0000000000e+00 -0.0000000000e+00 -2.3700405944e+02 2.3700405944e+02 0.0000000000e+00 0.0000e+00 -1.0000e+00
       25  2    1    2    0    0 +0.0000000000e+00 +0.0000000000e+00 -2.2052227423e+02 2.5348584464e+02 1.2500000000e+02 0.0000e+00 0.0000e+00
      -15  1    3    3    0    0 +8.8552825269e+00 -1.5146540257e+00 +9.9950581380e+00 1.3556147006e+01 1.7770000000e+00 0.0000e+00 -1.0000e+00
       15  1    3    3    0    0 -3.1688639033e+01 -6.2439080888e+00 -6.4359395301e+01 7.2030866471e+01 1.7770000000e+00 0.0000e+00 -1.0000e+00
       22  1    3    3    0    0 +2.2833356506e+01 +7.7585621145e+00 -1.6615793706e+02 1.6789883115e+02 0.0000000000e+00 0.0000e+00 -1.0000e+00
<mgrwt>
<rscale>  2 0.12500000E+03</rscale>
<asrwt>0</asrwt>
<pdfrwt beam="1">  1       21 0.24237922E-02 0.12500000E+03</pdfrwt>
<pdfrwt beam="2">  1       21 0.34853534E-01 0.12500000E+03</pdfrwt>
<totfact> 0.69557152E+06</totfact>
</mgrwt>
</event>
<event>
 6      0 +1.3698540e+00 1.25000000e+02 7.54677100e-03 1.12640300e-01
       21 -1    0    0  502  501 +0.0000000000e+00 +0.0000000000e+00 +1.5794673683e+02 1.5794673683e+02 0.0000000000e+00 0.0000e+00 -1.0000e+00
       21 -1    0    0  501  502 -0.0000000000e+00 -0.0000000000e+00 -2.4731438448e+01 2.4731438448e+01 0.0000000000e+00 0.0000e+00 -1.0000e+00
       25  2    1    2    0    0 +0.0000000000e+00 +0.0000000000e+00 +1.3321529838e+02 1.8267817528e+02 1.2500000000e+02 0.0000e+00 0.0000e+00
      -15  1    3    3    0    0 -2.4820525881e+00 +2.5133801310e+01 +1.7728178687e+01 3.0908164001e+01 1.7770000000e+00 0.0000e+00 -1.0000e+00
       15  1    3    3    0    0 -3.0846750395e+01 +2.3913799446e+01 +4.9267826905e+01 6.2879792548e+01 1.7770000000e+00 0.0000e+00 -1.0000e+00
       22  1    3    3    0    0 +3.3328802983e+01 -4.9047600756e+01 +6.6219292783e+01 8.8890218725e+01 0.0000000000e+00 0.0000e+00 -1.0000e+00
<mgrwt>
<rscale>  2 0.12500000E+03</rscale>
<asrwt>0</asrwt>
<pdfrwt beam="1">  1       21 0.23227461E-01 0.12500000E+03</pdfrwt>
<pdfrwt beam="2">  1       21 0.36369763E-02 0.12500000E+03</pdfrwt>
<totfact> 0.79398226E+06</totfact>
</mgrwt>
</event>
<event>
 6      0 +1.3698540e+00 1.25000000e+02 7.54677100e-03 1.12640300e-01
       21 -1    0    0  502  501 +0.0000000000e+00 +0.0000000000e+00 +5.0599193161e+01 5.0599193161e+01 0.0000000000e+00 0.0000e+00 -1.0000e+00
       21 -1    0    0  501  502 -0.0000000000e+00 -0.0000000000e+00 -7.7199847585e+01 7.7199847585e+01 0.0000000000e+00 0.0000e+00 -1.0000e+00
       25  2    1    2    0    0 +0.0000000000e+00 +0.0000000000e+00 -2.6600654424e+01 1.2779904075e+02 1.2500000000e+02 0.0000e+00 0.0000e+00
      -15  1    3    3    0    0 +5.5544183769e-01 +2.6317314197e+00 +5.0223807440e+00 5.9679613972e+00 1.7770000000e+00 0.0000e+00 -1.0000e+00
       15  1    3    3    0    0 -2.5538809093e+01 -2.6619210759e+01 +3.2341786283e+01 4.9091364010e+01 1.7770000000e+00 0.0000e+00 -1.0000e+00
       22  1    3    3    0    0 +2.4983367255e+01 +2.3987479339e+01 -6.3964821451e+01 7.2739715339e+01 0.0000000000e+00 0.0000e+00 -1.0000e+00
<mgrwt>
<rscale>  2 0.12500000E+03</rscale>
<asrwt>0</asrwt>
<pdfrwt beam="1">  1       21 0.74410580E-02 0.12500000E+03</pdfrwt>
<pdfrwt beam="2">  1       21 0.11352919E-01 0.12500000E+03</pdfrwt>
<totfact> 0.88493032E+06</totfact>
</mgrwt>
</event>
<event>
 6      0 +1.3698540e+00 1.25000000e+02 7.54677100e-03 1.12640300e-01
       21 -1    0    0  502  501 +0.0000000000e+00 +0.0000000000e+00 +9.4242088775e+01 9.4242088775e+01 0.0000000000e+00 0.0000e+00 1.0000e+00
       21 -1    0    0  501  502 -0.0000000000e+00 -0.0000000000e+00 -4.1449102527e+01 4.1449102527e+01 0.0000000000e+00 0.0000e+00 1.0000e+00
       25  2    1    2    0    0 +0.0000000000e+00 +0.0000000000e+00 +5.2792986247e+01 1.3569119130e+02 1.2500000000e+02 0.0000e+00 0.0000e+00
      -15  1    3    3    0    0 +2.5807592716e+01 -1.0813749956e+00 -1.8650589976e+01 3.1909300355e+01 1.7770000000e+00 0.0000e+00 -1.0000e+00
       15  1    3    3    0    0 +1.4735568404e+01 -1.4015703578e+01 +1.8076113391e-01 2.0414880028e+01 1.7770000000e+00 0.0000e+00 -1.0000e+00
       22  1    3    3    0    0 -4.0543161120e+01 +1.5097078573e+01 +7.1262815090e+01 8.3367010919e+01 0.0000000000e+00 0.0000e+00 -1.0000e+00
<mgrwt>
<rscale>  2 0.12500000E+03</rscale>
<asrwt>0</asrwt>
<pdfrwt beam="1">  1       21 0.13859131E-01 0.12500000E+03</pdfrwt>
<pdfrwt beam="2">  1       21 0.60954563E-02 0.12500000E+03</pdfrwt>
<totfact> 0.87085244E+06</totfact>
</mgrwt>
</event>
<event>
 6      0 +1.3698540e+00 1.25000000e+02 7.54677100e-03 1.12640300e-01
       21 -1    0    0  502  501 +0.0000000000e+00 +0.0000000000e+00 +3.4259951872e+02 3.4259951872e+02 0.0000000000e+00 0.0000e+00 -1.0000e+00
       21 -1    0    0  501  502 -0.0000000000e+00 -0.0000000000e+00 -1.1401796519e+01 1.1401796519e+01 0.0000000000e+00 0.0000e+00 -1.0000e+00
       25  2    1    2    0    0 +0.0000000000e+00 +0.0000000000e+00 +3.3119772220e+02 3.5400131524e+02 1.2500000000e+02 0.0000e+00 0.0000e+00
      -15  1    3    3    0    0 -2.7067453589e+01 -4.0023158736e+01 +2.7776191699e+02 2.8193854036e+02 1.7770000000e+00 0.0000e+00 1.0000e+00
       15  1    3    3    0    0 +2.7067453355e+01 +4.0023159014e+01 +5.3435799135e+01 7.2062768797e+01 1.7770000000e+00 0.0000e+00 1.0000e+00
       22  1    3    3    0    0 +2.3359862563e-07 -2.7757075859e-07 +6.0626452861e-06 6.0734900765e-06 0.0000000000e+00 0.0000e+00 -1.0000e+00
<mgrwt>
<rscale>  2 0.12500000E+03</rscale>
<asrwt>0</asrwt>
<pdfrwt beam="1">  1       21 0.50382276E-01 0.12500000E+03</pdfrwt>
<pdfrwt beam="2">  1       21 0.16767350E-02 0.12500000E+03</pdfrwt>
<totfact> 0.58120713E+06</totfact>
</mgrwt>
</event>
<event>
 6      0 +1.3698540e+00 1.25000000e+02 7.54677100e-03 1.12640300e-01
       21 -1    0    0  502  501 +0.0000000000e+00 +0.0000000000e+00 +2.3025280955e+01 2.3025280955e+01 0.0000000000e+00 0.0000e+00 -1.0000e+00
       21 -1    0    0  501  502 -0.0000000000e+00 -0.0000000000e+00 -1.6965048147e+02 1.6965048147e+02 0.0000000000e+00 0.0000e+00 -1.0000e+00
       25  2    1    2    0    0 +0.0000000000e+00 +0.0000000000e+00 -1.4662520052e+02 1.9267576243e+02 1.2500000000e+02 0.0000e+00 0.0000e+00
      -15  1    3    3    0    0 +3.3870007210e+01 +9.8751961462e+00 -3.1036846893e+01 4.7022765564e+01 1.7770000000e+00 0.0000e+00 -1.0000e+00
       15  1    3    3    0    0 -8.6446100539e-01 -1.4235071557e+01 -1.1113944241e+02 1.1206479350e+02 1.7770000000e+00 0.0000e+00 -1.0000e+00
       22  1    3    3    0    0 -3.3005546204e+01 +4.3598754110e+00 -4.4489112153e+00 3.3588203358e+01 0.0000000000e+00 0.0000e+00 -1.0000e+00
<mgrwt>
<rscale>  2 0.12500000E+03</rscale>
<asrwt>0</asrwt>
<pdfrwt beam="1">  1       21 0.33860707E-02 0.12500000E+03</pdfrwt>
<pdfrwt beam="2">  1       21 0.24948601E-01 0.12500000E+03</pdfrwt>
<totfact> 0.77899223E+06</totfact>
</mgrwt>
</event>
<event>
 6      0 +1.3698540e+00 1.25000000e+02 7.54677100e-03 1.12640300e-01
       21 -1    0    0  502  501 +0.0000000000e+00 +0.0000000000e+00 +7.7024893043e+01 7.7024893043e+01 0.0000000000e+00 0.0000e+00 -1.0000e+00
       21 -1    0    0  501  502 -0.0000000000e+00 -0.0000000000e+00 -5.0714124301e+01 5.0714124301e+01 0.0000000000e+00 0.0000e+00 -1.0000e+00
       25  2    1    2    0    0 +0.0000000000e+00 +0.0000000000e+00 +2.6310768742e+01 1.2773901734e+02 1.2500000000e+02 0.0000e+00 0.0000e+00
      -15  1    3    3    0    0 +3.1319652071e+01 +4.0631412077e+00 +6.8239014535e+01 7.5214031642e+01 1.7770000000e+00 0.0000e+00 1.0000e+00
       15  1    3    3    0    0 -3.1311175014e+01 -4.0519964543e+00 -4.1916213600e+01 5.2506523857e+01 1.7770000000e+00 0.0000e+00 1.0000e+00
       22  1    3    3    0    0 -8.4770569976e-03 -1.1144753438e-02 -1.2032191328e-02 1.8461843156e-02 0.0000000000e+00 0.0000e+00 -1.0000e+00
<mgrwt>
<rscale>  2 0.12500000E+03</rscale>
<asrwt>0</asrwt>
<pdfrwt beam="1">  1       21 0.11327190E-01 0.12500000E+03</pdfrwt>
<pdfrwt beam="2">  1       21 0.74579594E-02 0.12500000E+03</pdfrwt>
<totfact> 0.88503551E+06</totfact>
</mgrwt>
</event>
<event>
 6      0 +1.3698540e+00 1.25000000e+02 7.54677100e-03 1.12640300e-01
       21 -1    0    0  502  501 +0.0000000000e+00 +0.0000000000e+00 +2.8117198771e+02 2.8117198771e+02 0.0000000000e+00 0.0000e+00 -1.0000e+00
       21 -1    0    0  501  502 -0.0000000000e+00 -0.0000000000e+00 -1.3892742416e+01 1.3892742416e+01 0.0000000000e+00 0.0000e+00 -1.0000e+00
       25  2    1    2    0    0 +0.0000000000e+00 +0.0000000000e+00 +2.6727924530e+02 2.9506473013e+02 1.2500000000e+02 0.0000e+00 0.0000e+00
      -15  1    3    3    0    0 -1.5192813339e+01 -2.7887159036e+01 +1.2343668039e+02 1.2746876877e+02 1.7770000000e+00 0.0000e+00 -1.0000e+00
       15  1    3    3    0    0 -2.2785329507e+01 -6.5337615005e+00 +9.0700763563e+01 9.3763785760e+01 1.7770000000e+00 0.0000e+00 -1.0000e+00
       22  1    3    3    0    0 +3.7978142845e+01 +3.4420920536e+01 +5.3141801357e+01 7.3832175615e+01 0.0000000000e+00 0.0000e+00 -1.0000e+00
<mgrwt>
<rscale>  2 0.12500000E+03</rscale>
<asrwt>0</asrwt>
<pdfrwt beam="1">  1       21 0.41348818E-01 0.12500000E+03</pdfrwt>
<pdfrwt beam="2">  1       21 0.20430505E-02 0.12500000E+03</pdfrwt>
<totfact> 0.64519824E+06</totfact>
</mgrwt>
</event>
<event>
 6      0 +1.3698540e+00 1.25000000e+02 7.54677100e-03 1.12640300e-01
       21 -1    0    0  502  501 +0.0000000000e+00 +0.0000000000e+00 +7.0444428738e+01 7.0444428738e+01 0.0000000000e+00 0.0000e+00 -1.0000e+00
       21 -1    0    0  501  502 -0.0000000000e+00 -0.0000000000e+00 -5.5451510787e+01 5.5451510787e+01 0.0000000000e+00 0.0000e+00 -1.0000e+00
       25  2    1    2    0    0 +0.0000000000e+00 +0.0000000000e+00 +1.4992917951e+01 1.2589593952e+02 1.2500000000e+02 0.0000e+00 0.0000e+00
      -15  1    3    3    0    0 -1.5587491254e+01 -1.4510307010e+01 -5.1657577882e+01 5.5903327046e+01 1.7770000000e+00 0.0000e+00 1.0000e+00
       15  1    3    3    0    0 +1.5587493820e+01 +1.4510307479e+01 +6.6650496647e+01 6.9992609745e+01 1.7770000000e+00 0.0000e+00 1.0000e+00
       22  1    3    3    0    0 -2.5664972828e-06 -4.6867456493e-07 -8.1330768746e-07 2.7327703060e-06 0.0000000000e+00 0.0000e+00 -1.0000e+00
<mgrwt>
<rscale>  2 0.12500000E+03</rscale>
<asrwt>0</asrwt>
<pdfrwt beam="1">  1       21 0.10359475E-01 0.12500000E+03</pdfrwt>
<pdfrwt beam="2">  1       21 0.81546339E-02 0.12500000E+03</pdfrwt>
<totfact> 0.88830626E+06</totfact>
</mgrwt>
</event>
<event>
 6      0 +1.3698540e+00 1.25000000e+02 7.54677100e-03 1.12640300e-01
       21 -1    0    0  502  501 +0.0000000000e+00 +0.0000000000e+00 +1.3562935707e+03 1.3562935707e+03 0.0000000000e+00 0.0000e+00 -1.0000e+00
       21 -1    0    0  501  502 -0.0000000000e+00 -0.0000000000e+00 -2.8800918064e+00 2.8800918064e+00 0.0000000000e+00 0.0000e+00 -1.0000e+00
       25  2    1    2    0    0 +0.0000000000e+00 +0.0000000000e+00 +1.3534134789e+03 1.3591736625e+03 1.2500000000e+02 0.0000e+00 0.0000e+00
      -15  1    3    3    0    0 -2.5031100691e+00 -6.3047597067e+00 +3.1338706902e+02 3.1346551375e+02 1.7770000000e+00 0.0000e+00 -1.0000e+00
       15  1    3    3    0    0 -6.4296078379e+00 -1.8561257692e+00 +1.0299198452e+03 1.0299431199e+03 1.7770000000e+00 0.0000e+00 -1.0000e+00
       22  1    3    3    0    0 +8.9327179070e+00 +8.1608854759e+00 +1.0106566217e+01 1.5765030343e+01 0.0000000000e+00 0.0000e+00 -1.0000e+00
<mgrwt>
<rscale>  2 0.12500000E+03</rscale>
<asrwt>0</asrwt>
<pdfrwt beam="1">  1       21 0.19945449E+00 0.12500000E+03</pdfrwt>
<pdfrwt beam="2">  1       21 0.42354386E-03 0.12500000E+03</pdfrwt>
<totfact> 0.12872945E+06</totfact>
</mgrwt>
</event>
<event>
 6      0 +1.3698540e+00 1.25000000e+02 7.54677100e-03 1.12640300e-01
       21 -1    0    0  502  501 +0.0000000000e+00 +0.0000000000e+00 +7.4683121952e+00 7.4683121952e+00 0.0000000000e+00 0.0000e+00 -1.0000e+00
       21 -1    0    0  501  502 -0.0000000000e+00 -0.0000000000e+00 -5.2304321216e+02 5.2304321216e+02 0.0000000000e+00 0.0000e+00 -1.0000e+00
       25  2    1    2    0    0 +0.0000000000e+00 +0.0000000000e+00 -5.1557489996e+02 5.3051152435e+02 1.2500000000e+02 0.0000e+00 0.0000e+00
      -15  1    3    3    0    0 -2.0527987591e+01 -1.0628053483e+01 -4.5252812798e+01 5.0846126602e+01 1.7770000000e+00 0.0000e+00 -1.0000e+00
       15  1    3    3    0    0 +5.3158538527e+00 -3.1622580757e+01 -7.2221978845e+01 7.9040609013e+01 1.7770000000e+00 0.0000e+00 -1.0000e+00
       22  1    3    3    0    0 +1.5212133738e+01 +4.2250634240e+01 -3.9810010833e+02 4.0062478875e+02 0.0000000000e+00 0.0000e+00 -1.0000e+00
<mgrwt>
<rscale>  2 0.12500000E+03</rscale>
<asrwt>0</asrwt>
<pdfrwt beam="1">  1       21 0.10982811E-02 0.12500000E+03</pdfrwt>
<pdfrwt beam="2">  1       21 0.76918124E-01 0.12500000E+03</pdfrwt>
<totfact> 0.43130789E+06</totfact>
</mgrwt>
</event>
<event>
 6      0 +1.3698540e+00 1.25000000e+02 7.54677100e-03 1.12640300e-01
       21 -1    0    0  502  501 +0.0000000000e+00 +0.0000000000e+00 +1.2116868009e+02 1.2116868009e+02 0.0000000000e+00 0.0000e+00 -1.0000e+00
       21 -1    0    0  501  502 -0.0000000000e+00 -0.0000000000e+00 -3.2238116296e+01 3.2238116296e+01 0.0000000000e+00 0.0000e+00 -1.0000e+00
       25  2    1    2    0    0 +0.0000000000e+00 +0.0000000000e+00 +8.8930563790e+01 1.5340679638e+02 1.2500000000e+02 0.0000e+00 0.0000e+00
      -15  1    3    3    0    0 +4.9732477325e+01 -2.3649074379e-01 +5.3634763780e+01 7.3165708112e+01 1.7770000000e+00 0.0000e+00 -1.0000e+00
       15  1    3    3    0    0 -2.6517855036e+01 -1.3444122961e+01 -6.5255486375e+00 3.0490680410e+01 1.7770000000e+00 0.0000e+00 -1.0000e+00
       22  1    3    3    0    0 -2.3214622290e+01 +1.3680613705e+01 +4.1821348649e+01 4.9750407860e+01 0.0000000000e+00 0.0000e+00 -1.0000e+00
<mgrwt>
<rscale>  2 0.12500000E+03</rscale>
<asrwt>0</asrwt>
<pdfrwt beam="1">  1       21 0.17818923E-01 0.12500000E+03</pdfrwt>
<pdfrwt beam="2">  1       21 0.47408995E-02 0.12500000E+03</pdfrwt>
<totfact> 0.84058133E+06</totfact>
</mgrwt>
</event>
<event>
 6      0 +1.3698540e+00 1.25000000e+02 7.54677100e-03 1.12640300e-01
       21 -1    0    0  502  501 +0.0000000000e+00 +0.0000000000e+00 +7.7161382495e+01 7.7161382495e+01 0.0000000000e+00 0.0000e+00 1.0000e+00
       21 -1    0    0  501  502 -0.0000000000e+00 -0.0000000000e+00 -5.0624416952e+01 5.0624416952e+01 0.0000000000e+00 0.0000e+00 1.0000e+00
       25  2    1    2    0    0 +0.0000000000e+00 +0.0000000000e+00 +2.6536965543e+01 1.2778579945e+02 1.2500000000e+02 0.0000e+00 0.0000e+00
      -15  1    3    3    0    0 -1.5170259094e+01 -2.6365703555e+01 -3.1131013315e+00 3.0629009351e+01 1.7770000000e+00 0.0000e+00 -1.0000e+00
       15  1    3    3    0    0 +2.5091787009e+01 -1.1444090154e+01 +4.6894872238e+01 5.4432083793e+01 1.7770000000e+00 0.0000e+00 -1.0000e+00
       22  1    3    3    0    0 -9.9215279148e+00 +3.7809793710e+01 -1.7244805365e+01 4.2724706302e+01 0.0000000000e+00 0.0000e+00 -1.0000e+00
<mgrwt>
<rscale>  2 0.12500000E+03</rscale>
<asrwt>0</asrwt>
<pdfrwt beam="1">  1       21 0.11347262E-01 0.12500000E+03</pdfrwt>
<pdfrwt beam="2">  1       21 0.74447672E-02 0.12500000E+03</pdfrwt>
<totfact> 0.88495354E+06</totfact>
</mgrwt>
</event>
<event>
 6      0 +1.3698540e+00 1.25000000e+02 7.54677100e-03 1.12640300e-01
       21 -1    0    0  502  501 +0.0000000000e+00 +0.0000000000e+00 +4.4267197572e+02 4.4267197572e+02 0.0000000000e+00 0.0000e+00 -1.0000e+00
       21 -1    0    0  501  502 -0.0000000000e+00 -0.0000000000e+00 -8.8242541074e+00 8.8242541074e+00 0.0000000000e+00 0.0000e+00 -1.0000e+00
       25  2    1    2    0    0 +0.0000000000e+00 +0.0000000000e+00 +4.3384772162e+02 4.5149622983e+02 1.2500000000e+02 0.0000e+00 0.0000e+00
      -15  1    3    3    0    0 -3.4454557306e-01 +3.1910220832e+01 +1.7583959639e+02 1.7872073828e+02 1.7770000000e+00 0.0000e+00 -1.0000e+00
       15  1    3    3    0    0 -3.6673654013e+01 +3.5663591773e+00 +9.5819216856e+01 1.0267500117e+02 1.7770000000e+00 0.0000e+00 -1.0000e+00
       22  1    3    3    0    0 +3.7018199586e+01 -3.5476580010e+01 +1.6218890843e+02 1.7010049044e+02 0.0000000000e+00 0.0000e+00 -1.0000e+00
<mgrwt>
<rscale>  2 0.12500000E+03</rscale>
<asrwt>0</asrwt>
<pdfrwt beam="1">  1       21 0.65098805E-01 0.12500000E+03</pdfrwt>
<pdfrwt beam="2">  1       21 0.12976847E-02 0.12500000E+03</pdfrwt>
<totfact> 0.49151294E+06</totfact>
</mgrwt>
</event>
<event>
 6      0 +1.3698540e+00 1.25000000e+02 7.54677100e-03 1.12640300e-01
       21 -1    0    0  502  501 +0.0000000000e+00 +0.0000000000e+00 +8.3837314792e+02 8.3837314792e+02 0.0000000000e+00 0.0000e+00 1.0000e+00
       21 -1    0    0  501  502 -0.0000000000e+00 -0.0000000000e+00 -4.6593214605e+00 4.6593214605e+00 0.0000000000e+00 0.0000e+00 1.0000e+00
       25  2    1    2    0    0 +0.0000000000e+00 +0.0000000000e+00 +8.3371382646e+02 8.4303246938e+02 1.2500000000e+02 0.0000e+00 0.0000e+00
      -15  1    3    3    0    0 -3.7490841508e+01 -4.0074154910e+01 +3.1772817250e+02 3.2243735890e+02 1.7770000000e+00 0.0000e+00 -1.0000e+00
       15  1    3    3    0    0 -1.6801679409e+00 +1.7507804625e+01 +2.6365504612e+02 2.6424701940e+02 1.7770000000e+00 0.0000e+00 -1.0000e+00
       22  1    3    3    0    0 +3.9171009448e+01 +2.2566350285e+01 +2.5233060789e+02 2.5634809112e+02 0.0000000000e+00 0.0000e+00 -1.0000e+00
<mgrwt>
<rscale>  2 0.12500000E+03</rscale>
<asrwt>0</asrwt>
<pdfrwt beam="1">  1       21 0.12329006E+00 0.12500000E+03</pdfrwt>
<pdfrwt beam="2">  1       21 0.68519492E-03 0.12500000E+03</pdfrwt>
<totfact> 0.26544093E+06</totfact>
</mgrwt>
</event>
<event>
 6      0 +1.3698540e+00 1.25000000e+02 7.54677100e-03 1.12640300e-01
       21 -1    0    0  502  501 +0.0000000000e+00 +0.0000000000e+00 +2.6036244744e+02 2.6036244744e+02 0.0000000000e+00 0.0000e+00 -1.0000e+00
       21 -1    0    0  501  502 -0.0000000000e+00 -0.0000000000e+00 -1.5003123678e+01 1.5003123678e+01 0.0000000000e+00 0.0000e+00 -1.0000e+00
       25  2    1    2    0    0 +0.0000000000e+00 +0.0000000000e+00 +2.4535932376e+02 2.7536557111e+02 1.2500000000e+02 0.0000e+00 0.0000e+00
      -15  1    3    3    0    0 +3.4935436511e+00 +2.5661292526e+01 +1.3618642186e+02 1.3863840020e+02 1.7770000000e+00 0.0000e+00 -1.0000e+00
       15  1    3    3    0    0 -2.9088652397e+01 +7.7956963565e+00 +7.9967660737e+01 8.5468749099e+01 1.7770000000e+00 0.0000e+00 -1.0000e+00
       22  1    3    3    0    0 +2.5595108746e+01 -3.3456988882e+01 +2.9205241188e+01 5.1258421840e+01 0.0000000000e+00 0.0000e+00 -1.0000e+00
<mgrwt>
<rscale>  2 0.12500000E+03</rscale>
<asrwt>0</asrwt>
<pdfrwt beam="1">  1       21 0.38288592E-01 0.12500000E+03</pdfrwt>
<pdfrwt beam="2">  1       21 0.22063419E-02 0.12500000E+03</pdfrwt>
<totfact> 0.66847248E+06</totfact>
</mgrwt>
</event>
<event>
 6      0 +1.3698540e+00 1.25000000e+02 7.54677100e-03 1.12640300e-01
       21 -1    0    0  502  501 +0.0000000000e+00 +0.0000000000e+00 +3.4968788359e+01 3.4968788359e+01 0.0000000000e+00 0.0000e+00 1.0000e+00
       21 -1    0    0  501  502 -0.0000000000e+00 -0.0000000000e+00 -1.1170675861e+02 1.1170675861e+02 0.0000000000e+00 0.0000e+00 1.0000e+00
       25  2    1    2    0    0 +0.0000000000e+00 +0.0000000000e+00 -7.6737970249e+01 1.4667554697e+02 1.2500000000e+02 0.0000e+00 0.0000e+00
      -15  1    3    3    0    0 -1.7063429655e+01 -4.0043832250e+01 -3.7293219930e+01 5.7346413267e+01 1.7770000000e+00 0.0000e+00 -1.0000e+00
       15  1    3    3    0    0 +3.1762423654e+01 +3.6223790513e+01 -5.1049610757e+01 7.0215632469e+01 1.7770000000e+00 0.0000e+00 -1.0000e+00
       22  1    3    3    0    0 -1.4698993999e+01 +3.8200417369e+00 +1.1604860439e+01 1.9113501230e+01 0.0000000000e+00 0.0000e+00 -1.0000e+00
<mgrwt>
<rscale>  2 0.12500000E+03</rscale>
<asrwt>0</asrwt>
<pdfrwt beam="1">  1       21 0.51424688E-02 0.12500000E+03</pdfrwt>
<pdfrwt beam="2">  1       21 0.16427465E-01 0.12500000E+03</pdfrwt>
<totfact> 0.85187410E+06</totfact>
</mgrwt>
</event>
<event>
 6      0 +1.3698540e+00 1.25000000e+02 7.54677100e-03 1.12640300e-01
       21 -1    0    0  502  501 +0.0000000000e+00 +0.0000000000e+00 +9.8574173198e+00 9.8574173198e+00 0.0000000000e+00 0.0000e+00 1.0000e+00
       21 -1    0    0  501  502 -0.0000000000e+00 -0.0000000000e+00 -3.9627519798e+02 3.9627519798e+02 0.0000000000e+00 0.0000e+00 1.0000e+00
       25  2    1    2    0    0 +0.0000000000e+00 +0.0000000000e+00 -3.8641778066e+02 4.0613261530e+02 1.2500000000e+02 0.0000e+00 0.0000e+00
      -15  1    3    3    0    0 +1.3510297011e+01 +1.2598470171e+00 +2.9466088465e-01 1.3687947029e+01 1.7770000000e+00 0.0000e+00 -1.0000e+00
       15  1    3    3    0    0 -3.3391485853e+01 -4.0825947861e+00 -1.1093246095e+02 1.1593458298e+02 1.7770000000e+00 0.0000e+00 -1.0000e+00
       22  1    3    3    0    0 +1.9881188842e+01 +2.8227477689e+00 -2.7577998059e+02 2.7651008529e+02 0.0000000000e+00 0.0000e+00 -1.0000e+00
<mgrwt>
<rscale>  2 0.12500000E+03</rscale>
<asrwt>0</asrwt>
<pdfrwt beam="1">  1       21 0.14496202E-02 0.12500000E+03</pdfrwt>
<pdfrwt beam="2">  1       21 0.58275766E-01 0.12500000E+03</pdfrwt>
<totfact> 0.53093210E+06</totfact>
</mgrwt>
</event>
<event>
 6      0 +1.3698540e+00 1.25000000e+02 7.54677100e-03 1.12640300e-01
       21 -1    0    0  502  501 +0.0000000000e+00 +0.0000000000e+00 +1.4652526415e+02 1.4652526415e+02 0.0000000000e+00 0.0000e+00 1.0000e+00
       21 -1    0    0  501  502 -0.0000000000e+00 -0.0000000000e+00 -2.6659225102e+01 2.6659225102e+01 0.0000000000e+00 0.0000e+00 1.0000e+00
       25  2    1    2    0    0 +0.0000000000e+00 +0.0000000000e+00 +1.1986603904e+02 1.7318448925e+02 1.2500000000e+02 0.0000e+00 0.0000e+00
      -15  1    3    3    0    0 +8.7142754084e-03 -1.0146155214e+01 -1.0089257462e+00 1.0349888972e+01 1.7770000000e+00 0.0000e+00 -1.0000e+00
       15  1    3    3    0    0 -9.3598908266e+00 -4.8450369838e+01 +6.1797148548e+01 7.9101777423e+01 1.7770000000e+00 0.0000e+00 -1.0000e+00
       22  1    3    3    0    0 +9.3511765512e+00 +5.8596525053e+01 +5.9077816232e+01 8.3732822847e+01 0.0000000000e+00 0.0000e+00 -1.0000e+00
<mgrwt>
<rscale>  2 0.12500000E+03</rscale>
<asrwt>0</asrwt>
<pdfrwt beam="1">  1       21 0.21547833E-01 0.12500000E+03</pdfrwt>
<pdfrwt beam="2">  1       21 0.39204744E-02 0.12500000E+03</pdfrwt>
<totfact> 0.80861864E+06</totfact>
</mgrwt>
</event>
<event>
 6      0 +1.3698540e+00 1.25000000e+02 7.54677100e-03 1.12640300e-01
       21 -1    0    0  502  501 +0.0000000000e+00 +0.0000000000e+00 +8.7254632556e+01 8.7254632556e+01 0.0000000000e+00 0.0000e+00 1.0000e+00
       21 -1    0    0  501  502 -0.0000000000e+00 -0.0000000000e+00 -4.4768396652e+01 4.4768396652e+01 0.0000000000e+00 0.0000e+00 1.0000e+00
       25  2    1    2    0    0 +0.0000000000e+00 +0.0000000000e+00 +4.2486235904e+01 1.3202302921e+02 1.2500000000e+02 0.0000e+00 0.0000e+00
      -15  1    3    3    0    0 -6.3803655223e+00 -3.0894614509e+01 -1.7597186540e+01 3.6166351391e+01 1.7770000000e+00 0.0000e+00 -1.0000e+00
       15  1    3    3    0    0 +1.2223052723e+01 +3.0770371016e+01 -2.2658000055e+00 3.3234174114e+01 1.7770000000e+00 0.0000e+00 -1.0000e+00
       22  1    3    3    0    0 -5.8426872008e+00 +1.2424349308e-01 +6.2349222448e+01 6.2622503703e+01 0.0000000000e+00 0.0000e+00 -1.0000e+00
<mgrwt>
<rscale>  2 0.12500000E+03</rscale>
<asrwt>0</asrwt>
<pdfrwt beam="1">  1       21 0.12831564E-01 0.12500000E+03</pdfrwt>
<pdfrwt beam="2">  1       21 0.65835877E-02 0.12500000E+03</pdfrwt>
<totfact> 0.87732096E+06</totfact>
</mgrwt>
</event>
<event>
 6      0 +1.3698540e+00 1.25000000e+02 7.54677100e-03 1.12640300e-01
       21 -1    0    0  502  501 +0.0000000000e+00 +0.0000000000e+00 +2.2148624403e+01 2.2148624403e+01 0.0000000000e+00 0.0000e+00 1.0000e+00
       21 -1    0    0  501  502 -0.0000000000e+00 -0.0000000000e+00 -1.7636535475e+02 1.7636535475e+02 0.0000000000e+00 0.0000e+00 1.0000e+00
       25  2    1    2    0    0 +0.0000000000e+00 +0.0000000000e+00 -1.5421673035e+02 1.9851397915e+02 1.2500000000e+02 0.0000e+00 0.0000e+00
      -15  1    3    3    0    0 +1.1714182080e+01 -9.0303157214e+00 -2.7066173809e+01 3.0895050696e+01 1.7770000000e+00 0.0000e+00 -1.0000e+00
       15  1    3    3    0    0 +3.4576636528e+01 +4.0296944450e+01 -6.7430194503e+01 8.5845071992e+01 1.7770000000e+00 0.0000e+00 -1.0000e+00
       22  1    3    3    0    0 -4.6290818609e+01 -3.1266628729e+01 -5.9720362047e+01 8.1773856474e+01 0.0000000000e+00 0.0000e+00 -1.0000e+00
<mgrwt>
<rscale>  2 0.12500000E+03</rscale>
<asrwt>0</asrwt>
<pdfrwt beam="1">  1       21 0.32571507E-02 0.12500000E+03</pdfrwt>
<pdfrwt beam="2">  1       21 0.25936081E-01 0.12500000E+03</pdfrwt>
<totfact> 0.77036294E+06</totfact>
</mgrwt>
</event>
<event>
 6      0 +1.3698540e+00 1.25000000e+02 7.54677100e-03 1.12640300e-01
       21 -1    0    0  502  501 +0.0000000000e+00 +0.0000000000e+00 +1.1203631674e+02 1.1203631674e+02 0.0000000000e+00 0.0000e+00 1.0000e+00
       21 -1    0    0  501  502 -0.0000000000e+00 -0.0000000000e+00 -3.4865926635e+01 3.4865926635e+01 0.0000000000e+00 0.0000e+00 1.0000e+00
       25  2    1    2    0    0 +0.0000000000e+00 +0.0000000000e+00 +7.7170390108e+01 1.4690224338e+02 1.2500000000e+02 0.0000e+00 0.0000e+00
      -15  1    3    3    0    0 -3.7952833084e+01 +4.3093576007e+01 +9.6638880166e+00 5.8258237981e+01 1.7770000000e+00 0.0000e+00 -1.0000e+00
       15  1    3    3    0    0 +3.7952832777e+01 -4.3093574681e+01 +6.7506503131e+01 8.8644003681e+01 1.7770000000e+00 0.0000e+00 -1.0000e+00
       22  1    3    3    0    0 +3.0706848454e-07 -1.3254079962e-06 -1.0427377410e-06 1.7141468452e-06 0.0000000000e+00 0.0000e+00 1.0000e+00
<mgrwt>
<rscale>  2 0.12500000E+03</rscale>
<asrwt>0</asrwt>
<pdfrwt beam="1">  1       21 0.16475929E-01 0.12500000E+03</pdfrwt>
<pdfrwt beam="2">  1       21 0.51273422E-02 0.12500000E+03</pdfrwt>
<totfact> 0.85148796E+06</totfact>
</mgrwt>
</event>
<event>
 6      0 +1.3698540e+00 1.25000000e+02 7.54677100e-03 1.12640300e-01
       21 -1    0    0  502  501 +0.0000000000e+00 +0.0000000000e+00 +3.3756435883e+02 3.3756435883e+02 0.0000000000e+00 0.0000e+00 1.0000e+00
       21 -1    0    0  501  502 -0.0000000000e+00 -0.0000000000e+00 -1.1571867402e+01 1.1571867402e+01 0.0000000000e+00 0.0000e+00 1.0000e+00
       25  2    1    2    0    0 +0.0000000000e+00 +0.0000000000e+00 +3.2599249143e+02 3.4913622623e+02 1.2500000000e+02 0.0000e+00 0.0000e+00
      -15  1    3    3    0    0 -1.1156764693e+01 -3.5794634152e+01 +3.0257706399e+02 3.0489632109e+02 1.7770000000e+00 0.0000e+00 1.0000e+00
       15  1    3    3    0    0 +1.1156764667e+01 +3.5794632703e+01 +2.3415426569e+01 4.4239903466e+01 1.7770000000e+00 0.0000e+00 1.0000e+00
       22  1    3    3    0    0 +2.5330413749e-08 +1.4498061761e-06 +9.0371756161e-07 1.7085915279e-06 0.0000000000e+00 0.0000e+00 1.0000e+00
<mgrwt>
<rscale>  2 0.12500000E+03</rscale>
<asrwt>0</asrwt>
<pdfrwt beam="1">  1       21 0.49641811E-01 0.12500000E+03</pdfrwt>
<pdfrwt beam="2">  1       21 0.17017454E-02 0.12500000E+03</pdfrwt>
<totfact> 0.58617511E+06</totfact>
</mgrwt>
</event>
<event>
 6      0 +1.3698540e+00 1.25000000e+02 7.54677100e-03 1.12640300e-01
       21 -1    0    0  502  501 +0.0000000000e+00 +0.0000000000e+00 +8.0798797559e+02 8.0798797559e+02 0.0000000000e+00 0.0000e+00 1.0000e+00
       21 -1    0    0  501  502 -0.0000000000e+00 -0.0000000000e+00 -4.8345397679e+00 4.8345397679e+00 0.0000000000e+00 0.0000e+00 1.0000e+00
       25  2    1    2    0    0 +0.0000000000e+00 +0.0000000000e+00 +8.0315343582e+02 8.1282251536e+02 1.2500000000e+02 0.0000e+00 0.0000e+00
      -15  1    3    3    0    0 -1.9345016681e+01 -3.1039909962e+01 +2.3232882842e+02 2.3519682805e+02 1.7770000000e+00 0.0000e+00 -1.0000e+00
       15  1    3    3    0    0 -1.1476690898e+01 -2.2423444492e+01 +1.2267516309e+02 1.2524727009e+02 1.7770000000e+00 0.0000e+00 -1.0000e+00
       22  1    3    3    0    0 +3.0821707579e+01 +5.3463354454e+01 +4.4814944414e+02 4.5237841705e+02 0.0000000000e+00 0.0000e+00 -1.0000e+00
<mgrwt>
<rscale>  2 0.12500000E+03</rscale>
<asrwt>0</asrwt>
<pdfrwt beam="1">  1       21 0.11882167E+00 0.12500000E+03</pdfrwt>
<pdfrwt beam="2">  1       21 0.71096229E-03 0.12500000E+03</pdfrwt>
<totfact> 0.27752723E+06</totfact>
</mgrwt>
</event>
<event>
 6      0 +1.3698540e+00 1.25000000e+02 7.54677100e-03 1.12640300e-01
       21 -1    0    0  502  501 +0.0000000000e+00 +0.0000000000e+00 +3.9281165800e+01 3.9281165800e+01 0.0000000000e+00 0.0000e+00 1.0000e+00
       21 -1    0    0  501  502 -0.0000000000e+00 -0.0000000000e+00 -9.9443331694e+01 9.9443331694e+01 0.0000000000e+00 0.0000e+00 1.0000e+00
       25  2    1    2    0    0 +0.0000000000e+00 +0.0000000000e+00 -6.0162165893e+01 1.3872449749e+02 1.2500000000e+02 0.0000e+00 0.0000e+00
      -15  1    3    3    0    0 -2.0389617667e+01 -5.2516923265e+01 -6.0052309244e+01 8.2360192523e+01 1.7770000000e+00 0.0000e+00 1.0000e+00
       15  1    3    3    0    0 +2.0389619126e+01 +5.2516927649e+01 -1.0985102173e-01 5.6364297690e+01 1.7770000000e+00 0.0000e+00 1.0000e+00
       22  1    3    3    0    0 -1.4589754807e-06 -4.3843051881e-06 -5.6287738520e-06 7.2824334198e-06 0.0000000000e+00 0.0000e+00 -1.0000e+00
<mgrwt>
<rscale>  2 0.12500000E+03</rscale>
<asrwt>0</asrwt>
<pdfrwt beam="1">  1       21 0.57766421E-02 0.12500000E+03</pdfrwt>
<pdfrwt beam="2">  1       21 0.14624019E-01 0.12500000E+03</pdfrwt>
<totfact> 0.86560518E+06</totfact>
</mgrwt>
</event>
<event>
 6      0 +1.3698540e+00 1.25000000e+02 7.54677100e-03 1.12640300e-01
       21 -1    0    0  502  501 +0.0000000000e+00 +0.0000000000e+00 +8.9109942772e+01 8.9109942772e+01 0.0000000000e+00 0.0000e+00 -1.0000e+00
       21 -1    0    0  501  502 -0.0000000000e+00 -0.0000000000e+00 -4.3836297931e+01 4.3836297931e+01 0.0000000000e+00 0.0000e+00 -1.0000e+00
       25  2    1    2    0    0 +0.0000000000e+00 +0.0000000000e+00 +4.5273644841e+01 1.3294624070e+02 1.2500000000e+02 0.0000e+00 0.0000e+00
      -15  1    3    3    0    0 +5.2059199038e+01 -2.1964716663e+00 -1.3971198606e+01 5.3975335216e+01 1.7770000000e+00 0.0000e+00 -1.0000e+00
       15  1    3    3    0    0 -4.0344346410e+01 +1.7248787669e+00 +4.7597395719e+01 6.2444465746e+01 1.7770000000e+00 0.0000e+00 -1.0000e+00
       22  1    3    3    0    0 -1.1714852628e+01 +4.7159289946e-01 +1.1647447729e+01 1.6526439742e+01 0.0000000000e+00 0.0000e+00 1.0000e+00
<mgrwt>
<rscale>  2 0.12500000E+03</rscale>
<asrwt>0</asrwt>
<pdfrwt beam="1">  1       21 0.13104403E-01 0.12500000E+03</pdfrwt>
<pdfrwt beam="2">  1       21 0.64465144E-02 0.12500000E+03</pdfrwt>
<totfact> 0.87567601E+06</totfact>
</mgrwt>
</event>
<event>
 6      0 +1.3698540e+00 1.25000000e+02 7.54677100e-03 1.12640300e-01
       21 -1    0    0  502  501 +0.0000000000e+00 +0.0000000000e+00 +3.9174136948e+02 3.9174136948e+02 0.0000000000e+00 0.0000e+00 1.0000e+00
       21 -1    0    0  501  502 -0.0000000000e+00 -0.0000000000e+00 -9.9715023848e+00 9.9715023848e+00 0.0000000000e+00 0.0000e+00 1.0000e+00
       25  2    1    2    0    0 +0.0000000000e+00 +0.0000000000e+00 +3.8176986710e+02 4.0171287187e+02 1.2500000000e+02 0.0000e+00 0.0000e+00
      -15  1    3    3    0    0 -3.2958822785e+01 +5.2958197973e+01 +2.0209830741e+02 2.1151297435e+02 1.7770000000e+00 0.0000e+00 -1.0000e+00
       15  1    3    3    0    0 +3.2959068404e+01 -5.2958607205e+01 +1.7967010314e+02 1.9019836477e+02 1.7770000000e+00 0.0000e+00 -1.0000e+00
       22  1    3    3    0    0 -2.4561903567e-04 +4.0923247289e-04 +1.4565389882e-03 1.5327445161e-03 0.0000000000e+00 0.0000e+00 -1.0000e+00
<mgrwt>
<rscale>  2 0.12500000E+03</rscale>
<asrwt>0</asrwt>
<pdfrwt beam="1">  1       21 0.57609015E-01 0.12500000E+03</pdfrwt>
<pdfrwt beam="2">  1       21 0.14663977E-02 0.12500000E+03</pdfrwt>
<totfact> 0.53497997E+06</totfact>
</mgrwt>
</event>
<event>
 6      0 +1.3698540e+00 1.25000000e+02 7.54677100e-03 1.12640300e-01
       21 -1    0    0  502  501 +0.0000000000e+00 +0.0000000000e+00 +5.7488722770e+00 5.7488722770e+00 0.0000000000e+00 0.0000e+00 1.0000e+00
       21 -1    0    0  501  502 -0.0000000000e+00 -0.0000000000e+00 -6.7948108982e+02 6.7948108982e+02 0.0000000000e+00 0.0000e+00 1.0000e+00
       25  2    1    2    0    0 +0.0000000000e+00 +0.0000000000e+00 -6.7373221754e+02 6.8522996210e+02 1.2500000000e+02 0.0000e+00 0.0000e+00
      -15  1    3    3    0    0 +5.1422233030e+01 +3.2543938749e+01 -2.6005726204e+02 2.6708854574e+02 1.7770000000e+00 0.0000e+00 1.0000e+00
       15  1    3    3    0    0 -5.1446760863e+01 -3.2568406653e+01 -4.1352543221e+02 4.1798793180e+02 1.7770000000e+00 0.0000e+00 1.0000e+00
       22  1    3    3    0    0 +2.4527832333e-02 +2.4467903732e-02 -1.4952310830e-01 1.5348437310e-01 0.0000000000e+00 0.0000e+00 -1.0000e+00
<mgrwt>
<rscale>  2 0.12500000E+03</rscale>
<asrwt>0</asrwt>
<pdfrwt beam="1">  1       21 0.84542258E-03 0.12500000E+03</pdfrwt>
<pdfrwt beam="2">  1       21 0.99923668E-01 0.12500000E+03</pdfrwt>
<totfact> 0.33673213E+06</totfact>
</mgrwt>
</event>
<event>
 6      0 +1.3698540e+00 1.25000000e+02 7.54677100e-03 1.12640300e-01
       21 -1    0    0  502  501 +0.0000000000e+00 +0.0000000000e+00 +3.4293105962e+01 3.4293105962e+01 0.0000000000e+00 0.0000e+00 1.0000e+00
       21 -1    0    0  501  502 -0.0000000000e+00 -0.0000000000e+00 -1.1390773423e+02 1.1390773423e+02 0.0000000000e+00 0.0000e+00 1.0000e+00
       25  2    1    2    0    0 +0.0000000000e+00 +0.0000000000e+00 -7.9614628271e+01 1.4820084020e+02 1.2500000000e+02 0.0000e+00 0.0000e+00
      -15  1    3    3    0    0 +6.1543100122e+01 +9.8020964170e+00 -4.4996763413e+01 7.6886284300e+01 1.7770000000e+00 0.0000e+00 -1.0000e+00
       15  1    3    3    0    0 -6.1545418914e+01 -9.8021827517e+00 -3.4616366946e+01 7.1311794014e+01 1.7770000000e+00 0.0000e+00 -1.0000e+00
       22  1    3    3    0    0 +2.3187915441e-03 +8.6334741524e-05 -1.4979081663e-03 2.7618792131e-03 0.0000000000e+00 0.0000e+00 -1.0000e+00
<mgrwt>
<rscale>  2 0.12500000E+03</rscale>
<asrwt>0</asrwt>
<pdfrwt beam="1">  1       21 0.50431038E-02 0.12500000E+03</pdfrwt>
<pdfrwt beam="2">  1       21 0.16751137E-01 0.12500000E+03</pdfrwt>
<totfact> 0.84928450E+06</totfact>
</mgrwt>
</event>
<event>
 6      0 +1.3698540e+00 1.25000000e+02 7.54677100e-03 1.12640300e-01
       21 -1    0    0  502  501 +0.0000000000e+00 +0.0000000000e+00 +1.2942728629e+01 1.2942728629e+01 0.0000000000e+00 0.0000e+00 -1.0000e+00
       21 -1    0    0  501  502 -0.0000000000e+00 -0.0000000000e+00 -3.0181039191e+02 3.0181039191e+02 0.0000000000e+00 0.0000e+00 -1.0000e+00
       25  2    1    2    0    0 +0.0000000000e+00 +0.0000000000e+00 -2.8886766328e+02 3.1475312054e+02 1.2500000000e+02 0.0000e+00 0.0000e+00
      -15  1    3    3    0    0 -7.4945893325e+00 -2.6946428089e+01 -1.6884421718e+02 1.7115433462e+02 1.7770000000e+00 0.0000e+00 -1.0000e+00
       15  1    3    3    0    0 +2.4263331815e+01 +4.8035434697e+00 -5.0360042439e+00 2.5304196656e+01 1.7770000000e+00 0.0000e+00 -1.0000e+00
       22  1    3    3    0    0 -1.6768742482e+01 +2.2142884620e+01 -1.1498744185e+02 1.1829458925e+02 0.0000000000e+00 0.0000e+00 -1.0000e+00
<mgrwt>
<rscale>  2 0.12500000E+03</rscale>
<asrwt>0</asrwt>
<pdfrwt beam="1">  1       21 0.19033423E-02 0.12500000E+03</pdfrwt>
<pdfrwt beam="2">  1       21 0.44383883E-01 0.12500000E+03</pdfrwt>
<totfact> 0.62284628E+06</totfact>
</mgrwt>
</event>
<event>
 6      0 +1.3698540e+00 1.25000000e+02 7.54677100e-03 1.12640300e-01
       21 -1    0    0  502  501 +0.0000000000e+00 +0.0000000000e+00 +9.1122489851e+01 9.1122489851e+01 0.0000000000e+00 0.0000e+00 -1.0000e+00
       21 -1    0    0  501  502 -0.0000000000e+00 -0.0000000000e+00 -4.2868121870e+01 4.2868121870e+01 0.0000000000e+00 0.0000e+00 -1.0000e+00
       25  2    1    2    0    0 +0.0000000000e+00 +0.0000000000e+00 +4.8254367982e+01 1.3399061172e+02 1.2500000000e+02 0.0000e+00 0.0000e+00
      -15  1    3    3    0    0 +4.2920218494e+01 -2.5866787765e+01 +4.7891424798e+01 6.9339614673e+01 1.7770000000e+00 0.0000e+00 -1.0000e+00
       15  1    3    3    0    0 -1.0032208266e+01 +2.8891173382e+01 +5.8013349404e+00 3.1179453462e+01 1.7770000000e+00 0.0000e+00 -1.0000e+00
       22  1    3    3    0    0 -3.2888010228e+01 -3.0243856173e+00 -5.4383917566e+00 3.3471543586e+01 0.0000000000e+00 0.0000e+00 -1.0000e+00
<mgrwt>
<rscale>  2 0.12500000E+03</rscale>
<asrwt>0</asrwt>
<pdfrwt beam="1">  1       21 0.13400366E-01 0.12500000E+03</pdfrwt>
<pdfrwt beam="2">  1       21 0.63041356E-02 0.12500000E+03</pdfrwt>
<totfact> 0.87383011E+06</totfact>
</mgrwt>
</event>
<event>
 6      0 +1.3698540e+00 1.25000000e+02 7.54677100e-03 1.12640300e-01
       21 -1    0    0  502  501 +0.0000000000e+00 +0.0000000000e+00 +2.7475567389e+02 2.7475567389e+02 0.0000000000e+00 0.0000e+00 1.0000e+00
       21 -1    0    0  501  502 -0.0000000000e+00 -0.0000000000e+00 -1.4217176827e+01 1.4217176827e+01 0.0000000000e+00 0.0000e+00 1.0000e+00
       25  2    1    2    0    0 +0.0000000000e+00 +0.0000000000e+00 +2.6053849706e+02 2.8897285072e+02 1.2500000000e+02 0.0000e+00 0.0000e+00
      -15  1    3    3    0    0 +5.3384970626e+01 +2.4365617033e+01 +8.0717413991e+01 9.9810305242e+01 1.7770000000e+00 0.0000e+00 -1.0000e+00
       15  1    3    3    0    0 -5.3385029196e+01 -2.4365820527e+01 +1.7982083822e+02 1.8916222175e+02 1.7770000000e+00 0.0000e+00 -1.0000e+00
       22  1    3    3    0    0 +5.8569667015e-05 +2.0349347394e-04 +2.4482539728e-04 3.2369657858e-04 0.0000000000e+00 0.0000e+00 1.0000e+00
<mgrwt>
<rscale>  2 0.12500000E+03</rscale>
<asrwt>0</asrwt>
<pdfrwt beam="1">  1       21 0.40405243E-01 0.12500000E+03</pdfrwt>
<pdfrwt beam="2">  1       21 0.20907615E-02 0.12500000E+03</pdfrwt>
<totfact> 0.65230135E+06</totfact>
</mgrwt>
</event>
<event>
 6      0 +1.3698540e+00 1.25000000e+02 7.54677100e-03 1.12640300e-01
       21 -1    0    0  502  501 +0.0000000000e+00 +0.0000000000e+00 +2.9272458062e+01 2.9272458062e+01 0.0000000000e+00 0.0000e+00 -1.0000e+00
       21 -1    0    0  501  502 -0.0000000000e+00 -0.0000000000e+00 -1.3344455022e+02 1.3344455022e+02 0.0000000000e+00 0.0000e+00 -1.0000e+00
       25  2    1    2    0    0 +0.0000000000e+00 +0.0000000000e+00 -1.0417209216e+02 1.6271700829e+02 1.2500000000e+02 0.0000e+00 0.0000e+00
      -15  1    3    3    0    0 +5.8526800312e+01 +1.2264109716e+01 -7.5636132170e+01 9.6435351197e+01 1.7770000000e+00 0.0000e+00 1.0000e+00
       15  1    3    3    0    0 -5.8526819675e+01 -1.2264101805e+01 -2.8535948195e+01 6.6281633073e+01 1.7770000000e+00 0.0000e+00 1.0000e+00
       22  1    3    3    0    0 +1.9363825633e-05 -7.9101595364e-06 -1.1789356253e-05 2.4010774412e-05 0.0000000000e+00 0.0000e+00 1.0000e+00
<mgrwt>
<rscale>  2 0.12500000E+03</rscale>
<asrwt>0</asrwt>
<pdfrwt beam="1">  1       21 0.43047733E-02 0.12500000E+03</pdfrwt>
<pdfrwt beam="2">  1       21 0.19624198E-01 0.12500000E+03</pdfrwt>
<totfact> 0.82536775E+06</totfact>
</mgrwt>
</event>
<event>
 6      0 +1.3698540e+00 1.25000000e+02 7.54677100e-03 1.12640300e-01
       21 -1    0    0  502  501 +0.0000000000e+00 +0.0000000000e+00 +2.1581805364e+01 2.1581805364e+01 0.0000000000e+00 0.0000e+00 1.0000e+00
       21 -1    0    0  501  502 -0.0000000000e+00 -0.0000000000e+00 -1.8099736950e+02 1.8099736950e+02 0.0000000000e+00 0.0000e+00 1.0000e+00
       25  2    1    2    0    0 +0.0000000000e+00 +0.0000000000e+00 -1.5941556414e+02 2.0257917487e+02 1.2500000000e+02 0.0000e+00 0.0000e+00
      -15  1    3    3    0    0 +4.5503569257e+01 -2.2475072370e+01 -1.3859911394e+02 1.4760953833e+02 1.7770000000e+00 0.0000e+00 -1.0000e+00
       15  1    3    3    0    0 -4.3714822897e+01 +2.1787304927e+01 -1.9393362908e+01 5.2582626891e+01 1.7770000000e+00 0.0000e+00 -1.0000e+00
       22  1    3    3    0    0 -1.7887463596e+00 +6.8776744208e-01 -1.4230872884e+00 2.3870096405e+00 0.0000000000e+00 0.0000e+00 1.0000e+00
<mgrwt>
<rscale>  2 0.12500000E+03</rscale>
<asrwt>0</asrwt>
<pdfrwt beam="1">  1       21 0.31737949E-02 0.12500000E+03</pdfrwt>
<pdfrwt beam="2">  1       21 0.26617260E-01 0.12500000E+03</pdfrwt>
<totfact> 0.76444242E+06</totfact>
</mgrwt>
</event>
<event>
 6      0 +1.3698540e+00 1.25000000e+02 7.54677100e-03 1.12640300e-01
       21 -1    0    0  502  501 +0.0000000000e+00 +0.0000000000e+00 +5.3143645069e+02 5.3143645069e+02 0.0000000000e+00 0.0000e+00 -1.0000e+00
       21 -1    0    0  501  502 -0.0000000000e+00 -0.0000000000e+00 -7.3503614494e+00 7.3503614494e+00 0.0000000000e+00 0.0000e+00 -1.0000e+00
       25  2    1    2    0    0 +0.0000000000e+00 +0.0000000000e+00 +5.2408608925e+02 5.3878681214e+02 1.2500000000e+02 0.0000e+00 0.0000e+00
      -15  1    3    3    0    0 -5.1682977978e+00 +2.7027343710e+00 +5.0878719402e+01 5.1242735018e+01 1.7770000000e+00 0.0000e+00 -1.0000e+00
       15  1    3    3    0    0 -4.4166552522e+01 -3.3698212309e+01 +1.7214875032e+02 1.8089943018e+02 1.7770000000e+00 0.0000e+00 -1.0000e+00
       22  1    3    3    0    0 +4.9334850320e+01 +3.0995477938e+01 +3.0105861968e+02 3.0664464710e+02 0.0000000000e+00 0.0000e+00 -1.0000e+00
<mgrwt>
<rscale>  2 0.12500000E+03</rscale>
<asrwt>0</asrwt>
<pdfrwt beam="1">  1       21 0.78152393E-01 0.12500000E+03</pdfrwt>
<pdfrwt beam="2">  1       21 0.10809359E-02 0.12500000E+03</pdfrwt>
<totfact> 0.42558059E+06</totfact>
</mgrwt>
</event>
<event>
 6      0 +1.3698540e+00 1.25000000e+02 7.54677100e-03 1.12640300e-01
       21 -1    0    0  502  501 +0.0000000000e+00 +0.0000000000e+00 +1.0940915355e+01 1.0940915355e+01 0.0000000000e+00 0.0000e+00 1.0000e+00
       21 -1    0    0  501  502 -0.0000000000e+00 -0.0000000000e+00 -3.5703137016e+02 3.5703137016e+02 0.0000000000e+00 0.0000e+00 1.0000e+00
       25  2    1    2    0    0 +0.0000000000e+00 +0.0000000000e+00 -3.4609045481e+02 3.6797228552e+02 1.2500000000e+02 0.0000e+00 0.0000e+00
      -15  1    3    3    0    0 +4.2558884059e+01 +1.3713214168e+01 -2.4488482133e+02 2.4893984073e+02 1.7770000000e+00 0.0000e+00 -1.0000e+00
       15  1    3    3    0    0 -1.2633343720e+01 -3.0671032980e+00 -7.9466806010e+01 8.0542780450e+01 1.7770000000e+00 0.0000e+00 -1.0000e+00
       22  1    3    3    0    0 -2.9925540340e+01 -1.0646110870e+01 -2.1738827468e+01 3.8489664339e+01 0.0000000000e+00 0.0000e+00 -1.0000e+00
<mgrwt>
<rscale>  2 0.12500000E+03</rscale>
<asrwt>0</asrwt>
<pdfrwt beam="1">  1       21 0.16089584E-02 0.12500000E+03</pdfrwt>
<pdfrwt beam="2">  1       21 0.52504605E-01 0.12500000E+03</pdfrwt>
<totfact> 0.56720301E+06</totfact>
</mgrwt>
</event>
<event>
 6      0 +1.3698540e+00 1.25000000e+02 7.54677100e-03 1.12640300e-01
       21 -1    0    0  502  501 +0.0000000000e+00 +0.0000000000e+00 +9.2306028151e+00 9.2306028151e+00 0.0000000000e+00 0.0000e+00 -1.0000e+00
       21 -1    0    0  501  502 -0.0000000000e+00 -0.0000000000e+00 -4.2318471266e+02 4.2318471266e+02 0.0000000000e+00 0.0000e+00 -1.0000e+00
       25  2    1    2    0    0 +0.0000000000e+00 +0.0000000000e+00 -4.1395410985e+02 4.3241531548e+02 1.2500000000e+02 0.0000e+00 0.0000e+00
      -15  1    3    3    0    0 +1.4704831781e+01 +2.6911405870e+01 -1.5842986722e+02 1.6138040897e+02 1.7770000000e+00 0.0000e+00 -1.0000e+00
       15  1    3    3    0    0 +3.1474686556e+00 +3.5443449708e+00 +5.5920277254e+00 7.5430393953e+00 1.7770000000e+00 0.0000e+00 -1.0000e+00
       22  1    3    3    0    0 -1.7852300437e+01 -3.0455750841e+01 -2.6111627036e+02 2.6349186712e+02 0.0000000000e+00 0.0000e+00 -1.0000e+00
<mgrwt>
<rscale>  2 0.12500000E+03</rscale>
<asrwt>0</asrwt>
<pdfrwt beam="1">  1       21 0.13574416E-02 0.12500000E+03</pdfrwt>
<pdfrwt beam="2">  1       21 0.62233045E-01 0.12500000E+03</pdfrwt>
<totfact> 0.50763879E+06</totfact>
</mgrwt>
</event>
<event>
 6      0 +1.3698540e+00 1.25000000e+02 7.54677100e-03 1.12640300e-01
       21 -1    0    0  502  501 +0.0000000000e+00 +0.0000000000e+00 +1.6262519193e+01 1.6262519193e+01 0.0000000000e+00 0.0000e+00 1.0000e+00
       21 -1    0    0  501  502 -0.0000000000e+00 -0.0000000000e+00 -2.4019956278e+02 2.4019956278e+02 0.0000000000e+00 0.0000e+00 1.0000e+00
       25  2    1    2    0    0 +0.0000000000e+00 +0.0000000000e+00 -2.2393704359e+02 2.5646208198e+02 1.2500000000e+02 0.0000e+00 0.0000e+00
      -15  1    3    3    0    0 -5.8718477640e+01 +9.1523521470e+00 -9.1363323790e+01 1.0900476975e+02 1.7770000000e+00 0.0000e+00 -1.0000e+00
       15  1    3    3    0    0 +6.1166662757e+01 -9.7734632030e+00 -1.2855122980e+02 1.4270759485e+02 1.7770000000e+00 0.0000e+00 -1.0000e+00
       22  1    3    3    0    0 -2.4481851179e+00 +6.2111105603e-01 -4.0224899852e+00 4.7497173596e+00 0.0000000000e+00 0.0000e+00 1.0000e+00
<mgrwt>
<rscale>  2 0.12500000E+03</rscale>
<asrwt>0</asrwt>
<pdfrwt beam="1">  1       21 0.23915469E-02 0.12500000E+03</pdfrwt>
<pdfrwt beam="2">  1       21 0.35323466E-01 0.12500000E+03</pdfrwt>
<totfact> 0.69179624E+06</totfact>
</mgrwt>
</event>
<event>
 6      0 +1.3698540e+00 1.25000000e+02 7.54677100e-03 1.12640300e-01
       21 -1    0    0  502  501 +0.0000000000e+00 +0.0000000000e+00 +4.8867197580e+02 4.8867197580e+02 0.0000000000e+00 0.0000e+00 -1.0000e+00
       21 -1    0    0  501  502 -0.0000000000e+00 -0.0000000000e+00 -7.9936034670e+00 7.9936034670e+00 0.0000000000e+00 0.0000e+00 -1.0000e+00
       25  2    1    2    0    0 +0.0000000000e+00 +0.0000000000e+00 +4.8067837233e+02 4.9666557927e+02 1.2500000000e+02 0.0000e+00 0.0000e+00
      -15  1    3    3    0    0 +2.9219818531e+01 +1.5591622280e+01 +6.6426342179e+01 7.4246300546e+01 1.7770000000e+00 0.0000e+00 -1.0000e+00
       15  1    3    3    0    0 -4.3688277055e+01 +1.5661050386e+01 +1.9342704194e+02 1.9892489119e+02 1.7770000000e+00 0.0000e+00 -1.0000e+00
       22  1    3    3    0    0 +1.4468458523e+01 -3.1252672665e+01 +2.2082498812e+02 2.2349438744e+02 0.0000000000e+00 0.0000e+00 -1.0000e+00
<mgrwt>
<rscale>  2 0.12500000E+03</rscale>
<asrwt>0</asrwt>
<pdfrwt beam="1">  1       21 0.71863505E-01 0.12500000E+03</pdfrwt>
<pdfrwt beam="2">  1       21 0.11755303E-02 0.12500000E+03</pdfrwt>
<totfact> 0.45574998E+06</totfact>
</mgrwt>
</event>
<event>
 6      0 +1.3698540e+00 1.25000000e+02 7.54677100e-03 1.12640300e-01
       21 -1    0    0  502  501 +0.0000000000e+00 +0.0000000000e+00 +1.1196877348e+02 1.1196877348e+02 0.0000000000e+00 0.0000e+00 -1.0000e+00
       21 -1    0    0  501  502 -0.0000000000e+00 -0.0000000000e+00 -3.4886958913e+01 3.4886958913e+01 0.0000000000e+00 0.0000e+00 -1.0000e+00
       25  2    1    2    0    0 +0.0000000000e+00 +0.0000000000e+00 +7.7081814569e+01 1.4685573239e+02 1.2500000000e+02 0.0000e+00 0.0000e+00
      -15  1    3    3    0    0 -8.3579355296e+00 +1.5422859612e+01 -3.1904519550e+01 3.6452376901e+01 1.7770000000e+00 0.0000e+00 -1.0000e+00
       15  1    3    3    0    0 +8.3579367816e+00 -1.5422841357e+01 +1.0898632854e+02 1.1040333637e+02 1.7770000000e+00 0.0000e+00 -1.0000e+00
       22  1    3    3    0    0 -1.2520196774e-06 -1.8255685596e-05 +5.5819442234e-06 1.9131014379e-05 0.0000000000e+00 0.0000e+00 -1.0000e+00
<mgrwt>
<rscale>  2 0.12500000E+03</rscale>
<asrwt>0</asrwt>
<pdfrwt beam="1">  1       21 0.16465996E-01 0.12500000E+03</pdfrwt>
<pdfrwt beam="2">  1       21 0.51304351E-02 0.12500000E+03</pdfrwt>
<totfact> 0.85156715E+06</totfact>
</mgrwt>
</event>
<event>
 6      0 +1.3698540e+00 1.25000000e+02 7.54677100e-03 1.12640300e-01
       21 -1    0    0  502  501 +0.0000000000e+00 +0.0000000000e+00 +1.2508979122e+01 1.2508979122e+01 0.0000000000e+00 0.0000e+00 -1.0000e+00
       21 -1    0    0  501  502 -0.0000000000e+00 -0.0000000000e+00 -3.1227568308e+02 3.1227568308e+02 0.0000000000e+00 0.0000e+00 -1.0000e+00
       25  2    1    2    0    0 +0.0000000000e+00 +0.0000000000e+00 -2.9976670396e+02 3.2478466220e+02 1.2500000000e+02 0.0000e+00 0.0000e+00
      -15  1    3    3    0    0 +3.5367097581e+01 -1.1975310493e+01 -3.5756933591e+01 5.1729640261e+01 1.7770000000e+00 0.0000e+00 -1.0000e+00
       15  1    3    3    0    0 +1.3287244611e+01 +4.3855468344e+00 -1.2069461849e+02 1.2151597653e+02 1.7770000000e+00 0.0000e+00 -1.0000e+00
       22  1    3    3    0    0 -4.8654342191e+01 +7.5897636591e+00 -1.4331515190e+02 1.5153904544e+02 0.0000000000e+00 0.0000e+00 -1.0000e+00
<mgrwt>
<rscale>  2 0.12500000E+03</rscale>
<asrwt>0</asrwt>
<pdfrwt beam="1">  1       21 0.18395556E-02 0.12500000E+03</pdfrwt>
<pdfrwt beam="2">  1       21 0.45922897E-01 0.12500000E+03</pdfrwt>
<totfact> 0.61184972E+06</totfact>
</mgrwt>
</event>
<event>
 6      0 +1.3698540e+00 1.25000000e+02 7.54677100e-03 1.12640300e-01
       21 -1    0    0  502  501 +0.0000000000e+00 +0.0000000000e+00 +9.9215138815e+01 9.9215138815e+01 0.0000000000e+00 0.0000e+00 1.0000e+00
       21 -1    0    0  501  502 -0.0000000000e+00 -0.0000000000e+00 -3.9371511713e+01 3.9371511713e+01 0.0000000000e+00 0.0000e+00 1.0000e+00
       25  2    1    2    0    0 +0.0000000000e+00 +0.0000000000e+00 +5.9843627102e+01 1.3858665053e+02 1.2500000000e+02 0.0000e+00 0.0000e+00
      -15  1    3    3    0    0 +4.3722889886e+00 +8.2975640184e-01 -3.0612674457e+01 3.0985463900e+01 1.7770000000e+00 0.0000e+00 -1.0000e+00
       15  1    3    3    0    0 -2.3145480729e+01 +6.8079254206e+00 +1.2850612756e+01 2.7392646895e+01 1.7770000000e+00 0.0000e+00 -1.0000e+00
       22  1    3    3    0    0 +1.8773191741e+01 -7.6376818224e+00 +7.7605688802e+01 8.0208539733e+01 0.0000000000e+00 0.0000e+00 -1.0000e+00
<mgrwt>
<rscale>  2 0.12500000E+03</rscale>
<asrwt>0</asrwt>
<pdfrwt beam="1">  1       21 0.14590462E-01 0.12500000E+03</pdfrwt>
<pdfrwt beam="2">  1       21 0.57899282E-02 0.12500000E+03</pdfrwt>
<totfact> 0.86584275E+06</totfact>
</mgrwt>
</event>
<event>
 6      0 +1.3698540e+00 1.25000000e+02 7.54677100e-03 1.12640300e-01
       21 -1    0    0  502  501 +0.0000000000e+00 +0.0000000000e+00 +8.2377441311e+00 8.2377441311e+00 0.0000000000e+00 0.0000e+00 1.0000e+00
       21 -1    0    0  501  502 -0.0000000000e+00 -0.0000000000e+00 -4.7418928505e+02 4.7418928505e+02 0.0000000000e+00 0.0000e+00 1.0000e+00
       25  2    1    2    0    0 +0.0000000000e+00 +0.0000000000e+00 -4.6595154092e+02 4.8242702918e+02 1.2500000000e+02 0.0000e+00 0.0000e+00
      -15  1    3    3    0    0 -5.8047319886e+00 -4.6021944370e+00 +2.5471729245e+00 8.0324918915e+00 1.7770000000e+00 0.0000e+00 -1.0000e+00
       15  1    3    3    0    0 +3.6558787295e+01 -1.2797080225e+01 -2.7099100483e+02 2.7375096825e+02 1.7770000000e+00 0.0000e+00 -1.0000e+00
       22  1    3    3    0    0 -3.0754055306e+01 +1.7399274662e+01 -1.9750770905e+02 2.0064356907e+02 0.0000000000e+00 0.0000e+00 -1.0000e+00
<mgrwt>
<rscale>  2 0.12500000E+03</rscale>
<asrwt>0</asrwt>
<pdfrwt beam="1">  1       21 0.12114332E-02 0.12500000E+03</pdfrwt>
<pdfrwt beam="2">  1       21 0.69733706E-01 0.12500000E+03</pdfrwt>
<totfact> 0.46662494E+06</totfact>
</mgrwt>
</event>
<event>
 6      0 +1.3698540e+00 1.25000000e+02 7.54677100e-03 1.12640300e-01
       21 -1    0    0  502  501 +0.0000000000e+00 +0.0000000000e+00 +1.8612356479e+01 1.8612356479e+01 0.0000000000e+00 0.0000e+00 -1.0000e+00
       21 -1    0    0  501  502 -0.0000000000e+00 -0.0000000000e+00 -2.0987401592e+02 2.0987401592e+02 0.0000000000e+00 0.0000e+00 -1.0000e+00
       25  2    1    2    0    0 +0.0000000000e+00 +0.0000000000e+00 -1.9126165944e+02 2.2848637240e+02 1.2500000000e+02 0.0000e+00 0.0000e+00
      -15  1    3    3    0    0 -5.2037387352e+01 -3.4066630395e+01 -1.0639293403e+02 1.2325193358e+02 1.7770000000e+00 0.0000e+00 1.0000e+00
       15  1    3    3    0    0 +5.2037286909e+01 +3.4066465178e+01 -8.4868562278e+01 1.0523418585e+02 1.7770000000e+00 0.0000e+00 1.0000e+00
       22  1    3    3    0    0 +1.0044296779e-04 +1.6521656121e-04 -1.6312234629e-04 2.5297075272e-04 0.0000000000e+00 0.0000e+00 1.0000e+00
<mgrwt>
<rscale>  2 0.12500000E+03</rscale>
<asrwt>0</asrwt>
<pdfrwt beam="1">  1       21 0.27371113E-02 0.12500000E+03</pdfrwt>
<pdfrwt beam="2">  1       21 0.30863825E-01 0.12500000E+03</pdfrwt>
<totfact> 0.72840876E+06</totfact>
</mgrwt>
</event>
<event>
 6      0 +1.3698540e+00 1.25000000e+02 7.54677100e-03 1.12640300e-01
       21 -1    0    0  502  501 +0.0000000000e+00 +0.0000000000e+00 +4.5044536902e+01 4.5044536902e+01 0.0000000000e+00 0.0000e+00 1.0000e+00
       21 -1    0    0  501  502 -0.0000000000e+00 -0.0000000000e+00 -8.6719728267e+01 8.6719728267e+01 0.0000000000e+00 0.0000e+00 1.0000e+00
       25  2    1    2    0    0 +0.0000000000e+00 +0.0000000000e+00 -4.1675191365e+01 1.3176426517e+02 1.2500000000e+02 0.0000e+00 0.0000e+00
      -15  1    3    3    0    0 +2.7886852567e+01 -4.7247938802e+01 +1.0570266696e+01 5.5901096001e+01 1.7770000000e+00 0.0000e+00 -1.0000e+00
       15  1    3    3    0    0 -2.7682937006e+01 +4.5964701612e+01 -5.0683061245e+01 7.3831085742e+01 1.7770000000e+00 0.0000e+00 -1.0000e+00
       22  1    3    3    0    0 -2.0391556103e-01 +1.2832371894e+00 -1.5623968147e+00 2.0320834252e+00 0.0000000000e+00 0.0000e+00 1.0000e+00
<mgrwt>
<rscale>  2 0.12500000E+03</rscale>
<asrwt>0</asrwt>
<pdfrwt beam="1">  1       21 0.66241966E-02 0.12500000E+03</pdfrwt>
<pdfrwt beam="2">  1       21 0.12752901E-01 0.12500000E+03</pdfrwt>
<totfact> 0.87778452E+06</totfact>
</mgrwt>
</event>
<event>
 6      0 +1.3698540e+00 1.25000000e+02 7.54677100e-03 1.12640300e-01
       21 -1    0    0  502  501 +0.0000000000e+00 +0.0000000000e+00 +4.8864451474e+02 4.8864451474e+02 0.0000000000e+00 0.0000e+00 1.0000e+00
       21 -1    0    0  501  502 -0.0000000000e+00 -0.0000000000e+00 -7.9940526951e+00 7.9940526951e+00 0.0000000000e+00 0.0000e+00 1.0000e+00
       25  2    1    2    0    0 +0.0000000000e+00 +0.0000000000e+00 +4.8065046205e+02 4.9663856744e+02 1.2500000000e+02 0.0000e+00 0.0000e+00
      -15  1    3    3    0    0 +3.2207039237e+01 +1.3009937113e+01 +1.0181334820e+02 1.0759027577e+02 1.7770000000e+00 0.0000e+00 -1.0000e+00
       15  1    3    3    0    0 -2.5524745718e+01 -2.3948017697e+01 +5.6700475388e+01 6.6656746349e+01 1.7770000000e+00 0.0000e+00 -1.0000e+00
       22  1    3    3    0    0 -6.6822935188e+00 +1.0938080584e+01 +3.2213663846e+02 3.2239154532e+02 0.0000000000e+00 0.0000e+00 -1.0000e+00
<mgrwt>
<rscale>  2 0.12500000E+03</rscale>
<asrwt>0</asrwt>
<pdfrwt beam="1">  1       21 0.71859467E-01 0.12500000E+03</pdfrwt>
<pdfrwt beam="2">  1       21 0.11755963E-02 0.12500000E+03</pdfrwt>
<totfact> 0.45577024E+06</totfact>
</mgrwt>
</event>
<event>
 6      0 +1.3698540e+00 1.25000000e+02 7.54677100e-03 1.12640300e-01
       21 -1    0    0  502  501 +0.0000000000e+00 +0.0000000000e+00 +9.3645846973e+01 9.3645846973e+01 0.0000000000e+00 0.0000e+00 1.0000e+00
       21 -1    0    0  501  502 -0.0000000000e+00 -0.0000000000e+00 -4.1713008385e+01 4.1713008385e+01 0.0000000000e+00 0.0000e+00 1.0000e+00
       25  2    1    2    0    0 +0.0000000000e+00 +0.0000000000e+00 +5.1932838588e+01 1.3535885536e+02 1.2500000000e+02 0.0000e+00 0.0000e+00
      -15  1    3    3    0    0 +6.5002473196e+00 +1.8604634721e+01 +6.2532411149e+01 6.5588457990e+01 1.7770000000e+00 0.0000e+00 -1.0000e+00
       15  1    3    3    0    0 -1.8581941456e+01 -3.5307764782e+01 +9.4202462572e+00 4.1034443712e+01 1.7770000000e+00 0.0000e+00 -1.0000e+00
       22  1    3    3    0    0 +1.2081694137e+01 +1.6703130060e+01 -2.0019818818e+01 2.8735953657e+01 0.0000000000e+00 0.0000e+00 -1.0000e+00
<mgrwt>
<rscale>  2 0.12500000E+03</rscale>
<asrwt>0</asrwt>
<pdfrwt beam="1">  1       21 0.13771448E-01 0.12500000E+03</pdfrwt>
<pdfrwt beam="2">  1       21 0.61342659E-02 0.12500000E+03</pdfrwt>
<totfact> 0.87143194E+06</totfact>
</mgrwt>
</event>
<event>
 6      0 +1.3698540e+00 1.25000000e+02 7.54677100e-03 1.12640300e-01
       21 -1    0    0  502  501 +0.0000000000e+00 +0.0000000000e+00 +1.0680309433e+01 1.0680309433e+01 0.0000000000e+00 0.0000e+00 -1.0000e+00
       21 -1    0    0  501  502 -0.0000000000e+00 -0.0000000000e+00 -3.6574314859e+02 3.6574314859e+02 0.0000000000e+00 0.0000e+00 -1.0000e+00
       25  2    1    2    0    0 +0.0000000000e+00 +0.0000000000e+00 -3.5506283916e+02 3.7642345802e+02 1.2500000000e+02 0.0000e+00 0.0000e+00
      -15  1    3    3    0    0 -7.6036877320e+00 -1.3386973146e+01 -1.0052728965e+02 1.0171489965e+02 1.7770000000e+00 0.0000e+00 -1.0000e+00
       15  1    3    3    0    0 +1.7450840837e+01 +3.2395017127e+01 -2.5016088967e+02 2.5285884883e+02 1.7770000000e+00 0.0000e+00 -1.0000e+00
       22  1    3    3    0    0 -9.8471531047e+00 -1.9008043981e+01 -4.3746598887e+00 2.1849709597e+01 0.0000000000e+00 0.0000e+00 -1.0000e+00
<mgrwt>
<rscale>  2 0.12500000E+03</rscale>
<asrwt>0</asrwt>
<pdfrwt beam="1">  1       21 0.15706335E-02 0.12500000E+03</pdfrwt>
<pdfrwt beam="2">  1       21 0.53785764E-01 0.12500000E+03</pdfrwt>
<totfact> 0.55891331E+06</totfact>
</mgrwt>
</event>
<event>
 6      0 +1.3698540e+00 1.25000000e+02 7.54677100e-03 1.12640300e-01
       21 -1    0    0  502  501 +0.0000000000e+00 +0.0000000000e+00 +2.5976074579e+01 2.5976074579e+01 0.0000000000e+00 0.0000e+00 -1.0000e+00
       21 -1    0    0  501  502 -0.0000000000e+00 -0.0000000000e+00 -1.5037876443e+02 1.5037876443e+02 0.0000000000e+00 0.0000e+00 -1.0000e+00
       25  2    1    2    0    0 +0.0000000000e+00 +0.0000000000e+00 -1.2440268985e+02 1.7635483901e+02 1.2500000000e+02 0.0000e+00 0.0000e+00
      -15  1    3    3    0    0 +1.3196307571e+01 +5.7852790869e+00 +1.2350614822e+01 1.9060624416e+01 1.7770000000e+00 0.0000e+00 -1.0000e+00
       15  1    3    3    0    0 -1.4476461575e+01 -2.3269870235e+01 -9.8350882869e+00 2.9170901444e+01 1.7770000000e+00 0.0000e+00 -1.0000e+00
       22  1    3    3    0    0 +1.2801540040e+00 +1.7484591148e+01 -1.2691821638e+02 1.2812331315e+02 0.0000000000e+00 0.0000e+00 -1.0000e+00
<mgrwt>
<rscale>  2 0.12500000E+03</rscale>
<asrwt>0</asrwt>
<pdfrwt beam="1">  1       21 0.38200109E-02 0.12500000E+03</pdfrwt>
<pdfrwt beam="2">  1       21 0.22114525E-01 0.12500000E+03</pdfrwt>
<totfact> 0.80367731E+06</totfact>
</mgrwt>
</event>
<event>
 6      0 +1.3698540e+00 1.25000000e+02 7.54677100e-03 1.12640300e-01
       21 -1    0    0  502  501 +0.0000000000e+00 +0.0000000000e+00 +5.7082219737e+01 5.7082219737e+01 0.0000000000e+00 0.0000e+00 1.0000e+00
       21 -1    0    0  501  502 -0.0000000000e+00 -0.0000000000e+00 -6.8431991923e+01 6.8431991923e+01 0.0000000000e+00 0.0000e+00 1.0000e+00
       25  2    1    2    0    0 +0.0000000000e+00 +0.0000000000e+00 -1.1349772186e+01 1.2551421166e+02 1.2500000000e+02 0.0000e+00 0.0000e+00
      -15  1    3    3    0    0 -4.9045253833e+00 +1.3055772258e+01 +1.0696701436e-01 1.4059755668e+01 1.7770000000e+00 0.0000e+00 -1.0000e+00
       15  1    3    3    0    0 -1.5215090523e+01 -1.0426019968e+01 +4.6495936851e+01 5.0052280113e+01 1.7770000000e+00 0.0000e+00 -1.0000e+00
       22  1    3    3    0    0 +2.0119615906e+01 -2.6297522900e+00 -5.7952676051e+01 6.1402175880e+01 0.0000000000e+00 0.0000e+00 -1.0000e+00
<mgrwt>
<rscale>  2 0.12500000E+03</rscale>
<asrwt>0</asrwt>
<pdfrwt beam="1">  1       21 0.83944441E-02 0.12500000E+03</pdfrwt>
<pdfrwt beam="2">  1       21 0.10063528E-01 0.12500000E+03</pdfrwt>
<totfact> 0.88900784E+06</totfact>
</mgrwt>
</event>
<event>
 6      0 +1.3698540e+00 1.25000000e+02 7.54677100e-03 1.12640300e-01
       21 -1    0    0  502  501 +0.0000000000e+00 +0.0000000000e+00 +1.3236712389e+01 1.3236712389e+01 0.0000000000e+00 0.0000e+00 -1.0000e+00
       21 -1    0    0  501  502 -0.0000000000e+00 -0.0000000000e+00 -2.9510726571e+02 2.9510726571e+02 0.0000000000e+00 0.0000e+00 -1.0000e+00
       25  2    1    2    0    0 +0.0000000000e+00 +0.0000000000e+00 -2.8187055332e+02 3.0834397810e+02 1.2500000000e+02 0.0000e+00 0.0000e+00
      -15  1    3    3    0    0 -1.1079096393e+01 +2.9207816062e+01 -4.1534939378e+01 5.2001459731e+01 1.7770000000e+00 0.0000e+00 -1.0000e+00
       15  1    3    3    0    0 +1.4228526029e+01 +9.0171906278e+00 -4.6622807831e+00 1.7568587618e+01 1.7770000000e+00 0.0000e+00 -1.0000e+00
       22  1    3    3    0    0 -3.1494296356e+00 -3.8225006689e+01 -2.3567333315e+02 2.3877393074e+02 0.0000000000e+00 0.0000e+00 -1.0000e+00
<mgrwt>
<rscale>  2 0.12500000E+03</rscale>
<asrwt>0</asrwt>
<pdfrwt beam="1">  1       21 0.19465756E-02 0.12500000E+03</pdfrwt>
<pdfrwt beam="2">  1       21 0.43398123E-01 0.12500000E+03</pdfrwt>
<totfact> 0.63000920E+06</totfact>
</mgrwt>
</event>
<event>
 6      0 +1.3698540e+00 1.25000000e+02 7.54677100e-03 1.12640300e-01
       21 -1    0    0  502  501 +0.0000000000e+00 +0.0000000000e+00 +8.6865937373e+00 8.6865937373e+00 0.0000000000e+00 0.0000e+00 -1.0000e+00
       21 -1    0    0  501  502 -0.0000000000e+00 -0.0000000000e+00 -4.4968719824e+02 4.4968719824e+02 0.0000000000e+00 0.0000e+00 -1.0000e+00
       25  2    1    2    0    0 +0.0000000000e+00 +0.0000000000e+00 -4.4100060451e+02 4.5837379198e+02 1.2500000000e+02 0.0000e+00 0.0000e+00
      -15  1    3    3    0    0 +3.8192989662e+01 +1.6200181298e+01 -1.4436870215e+02 1.5022193656e+02 1.7770000000e+00 0.0000e+00 -1.0000e+00
       15  1    3    3    0    0 -5.0476976034e+01 +1.2686827010e+01 -1.8419993584e+02 1.9142010025e+02 1.7770000000e+00 0.0000e+00 -1.0000e+00
       22  1    3    3    0    0 +1.2283986372e+01 -2.8887008308e+01 -1.1243196658e+02 1.1673175523e+02 0.0000000000e+00 0.0000e+00 -1.0000e+00
<mgrwt>
<rscale>  2 0.12500000E+03</rscale>
<asrwt>0</asrwt>
<pdfrwt beam="1">  1       21 0.12774404E-02 0.12500000E+03</pdfrwt>
<pdfrwt beam="2">  1       21 0.66130462E-01 0.12500000E+03</pdfrwt>
<totfact> 0.48584841E+06</totfact>
</mgrwt>
</event>
<event>
 6      0 +1.3698540e+00 1.25000000e+02 7.54677100e-03 1.12640300e-01
       21 -1    0    0  502  501 +0.0000000000e+00 +0.0000000000e+00 +2.9310281251e+02 2.9310281251e+02 0.0000000000e+00 0.0000e+00 -1.0000e+00
       21 -1    0    0  501  502 -0.0000000000e+00 -0.0000000000e+00 -1.3327234790e+01 1.3327234790e+01 0.0000000000e+00 0.0000e+00 -1.0000e+00
       25  2    1    2    0    0 +0.0000000000e+00 +0.0000000000e+00 +2.7977557772e+02 3.0643004730e+02 1.2500000000e+02 0.0000e+00 0.0000e+00
      -15  1    3    3    0    0 +2.5317360783e+01 -4.1546255148e+01 +4.3811730218e+01 6.5495690756e+01 1.7770000000e+00 0.0000e+00 1.0000e+00
       15  1    3    3    0    0 -2.5317715675e+01 +4.1546808642e+01 +2.3596324279e+02 2.4093346325e+02 1.7770000000e+00 0.0000e+00 1.0000e+00
       22  1    3    3    0    0 +3.5489194768e-04 -5.5349357266e-04 +6.0471278179e-04 8.9329781034e-04 0.0000000000e+00 0.0000e+00 -1.0000e+00
<mgrwt>
<rscale>  2 0.12500000E+03</rscale>
<asrwt>0</asrwt>
<pdfrwt beam="1">  1       21 0.43103351E-01 0.12500000E+03</pdfrwt>
<pdfrwt beam="2">  1       21 0.19598876E-02 0.12500000E+03</pdfrwt>
<totfact> 0.63216957E+06</totfact>
</mgrwt>
</event>
<event>
 6      0 +1.3698540e+00 1.25000000e+02 7.54677100e-03 1.12640300e-01
       21 -1    0    0  502  501 +0.0000000000e+00 +0.0000000000e+00 +1.6311840620e+01 1.6311840620e+01 0.0000000000e+00 0.0000e+00 -1.0000e+00
       21 -1    0    0  501  502 -0.0000000000e+00 -0.0000000000e+00 -2.3947328147e+02 2.3947328147e+02 0.0000000000e+00 0.0000e+00 -1.0000e+00
       25  2    1    2    0    0 +0.0000000000e+00 +0.0000000000e+00 -2.2316144085e+02 2.5578512209e+02 1.2500000000e+02 0.0000e+00 0.0000e+00
      -15  1    3    3    0    0 -1.4607799126e-01 -8.7342578996e+00 -1.4438006119e+02 1.4465499783e+02 1.7770000000e+00 0.0000e+00 -1.0000e+00
       15  1    3    3    0    0 +2.1743841262e+01 +1.2464716423e+01 +4.0478960360e+00 2.5450088009e+01 1.7770000000e+00 0.0000e+00 -1.0000e+00
       22  1    3    3    0    0 -2.1597763270e+01 -3.7304585230e+00 -8.2829275692e+01 8.5680036244e+01 0.0000000000e+00 0.0000e+00 -1.0000e+00
<mgrwt>
<rscale>  2 0.12500000E+03</rscale>
<asrwt>0</asrwt>
<pdfrwt beam="1">  1       21 0.23988002E-02 0.12500000E+03</pdfrwt>
<pdfrwt beam="2">  1       21 0.35216657E-01 0.12500000E+03</pdfrwt>
<totfact> 0.69265236E+06</totfact>
</mgrwt>
</event>
<event>
 6      0 +1.3698540e+00 1.25000000e+02 7.54677100e-03 1.12640300e-01
       21 -1    0    0  502  501 +0.0000000000e+00 +0.0000000000e+00 +2.0861036909e+01 2.0861036909e+01 0.0000000000e+00 0.0000e+00 1.0000e+00
       21 -1    0    0  501  502 -0.0000000000e+00 -0.0000000000e+00 -1.8725099893e+02 1.8725099893e+02 0.0000000000e+00 0.0000e+00 1.0000e+00
       25  2    1    2    0    0 +0.0000000000e+00 +0.0000000000e+00 -1.6638996202e+02 2.0811203584e+02 1.2500000000e+02 0.0000e+00 0.0000e+00
      -15  1    3    3    0    0 -1.5490652677e+01 -3.4571853467e+01 -5.0237918417e-01 3.7928663124e+01 1.7770000000e+00 0.0000e+00 1.0000e+00
       15  1    3    3    0    0 +1.5285091013e+01 +3.4391466753e+01 -1.6376642174e+02 1.6804465363e+02 1.7770000000e+00 0.0000e+00 1.0000e+00
       22  1    3    3    0    0 +2.0556166417e-01 +1.8038671390e-01 -2.1211610897e+00 2.1387190869e+00 0.0000000000e+00 0.0000e+00 1.0000e+00
<mgrwt>
<rscale>  2 0.12500000E+03</rscale>
<asrwt>0</asrwt>
<pdfrwt beam="1">  1       21 0.30677998E-02 0.12500000E+03</pdfrwt>
<pdfrwt beam="2">  1       21 0.27536909E-01 0.12500000E+03</pdfrwt>
<totfact> 0.75651576E+06</totfact>
</mgrwt>
</event>
<event>
 6      0 +1.3698540e+00 1.25000000e+02 7.54677100e-03 1.12640300e-01
       21 -1    0    0  502  501 +0.0000000000e+00 +0.0000000000e+00 +5.3684056004e+01 5.3684056004e+01 0.0000000000e+00 0.0000e+00 -1.0000e+00
       21 -1    0    0  501  502 -0.0000000000e+00 -0.0000000000e+00 -7.2763689832e+01 7.2763689832e+01 0.0000000000e+00 0.0000e+00 -1.0000e+00
       25  2    1    2    0    0 +0.0000000000e+00 +0.0000000000e+00 -1.9079633828e+01 1.2644774584e+02 1.2500000000e+02 0.0000e+00 0.0000e+00
      -15  1    3    3    0    0 -3.8708551496e+01 -2.3785348200e+01 -2.3272498690e-01 4.5467643857e+01 1.7770000000e+00 0.0000e+00 1.0000e+00
       15  1    3    3    0    0 +5.3953776481e+01 +3.0509583647e+01 -1.3296452641e+01 6.3417647960e+01 1.7770000000e+00 0.0000e+00 1.0000e+00
       22  1    3    3    0    0 -1.5245224985e+01 -6.7242354473e+00 -5.5504561999e+00 1.7562454021e+01 0.0000000000e+00 0.0000e+00 1.0000e+00
<mgrwt>
<rscale>  2 0.12500000E+03</rscale>
<asrwt>0</asrwt>
<pdfrwt beam="1">  1       21 0.78947142E-02 0.12500000E+03</pdfrwt>
<pdfrwt beam="2">  1       21 0.10700543E-01 0.12500000E+03</pdfrwt>
<totfact> 0.88731402E+06</totfact>
</mgrwt>
</event>
<event>
 6      0 +1.3698540e+00 1.25000000e+02 7.54677100e-03 1.12640300e-01
       21 -1    0    0  502  501 +0.0000000000e+00 +0.0000000000e+00 +9.4845211400e+00 9.4845211400e+00 0.0000000000e+00 0.0000e+00 -1.0000e+00
       21 -1    0    0  501  502 -0.0000000000e+00 -0.0000000000e+00 -4.1185526843e+02 4.1185526843e+02 0.0000000000e+00 0.0000e+00 -1.0000e+00
       25  2    1    2    0    0 +0.0000000000e+00 +0.0000000000e+00 -4.0237074729e+02 4.2133978957e+02 1.2500000000e+02 0.0000e+00 0.0000e+00
      -15  1    3    3    0    0 -4.1898138843e+00 -1.3017627245e+01 -2.0608738953e+02 2.0654825831e+02 1.7770000000e+00 0.0000e+00 -1.0000e+00
       15  1    3    3    0    0 +2.2182066520e+00 +4.9660975999e+01 -9.8458691650e+01 1.1031049210e+02 1.7770000000e+00 0.0000e+00 -1.0000e+00
       22  1    3    3    0    0 +1.9716072323e+00 -3.6643348754e+01 -9.7824666107e+01 1.0448103915e+02 0.0000000000e+00 0.0000e+00 -1.0000e+00
<mgrwt>
<rscale>  2 0.12500000E+03</rscale>
<asrwt>0</asrwt>
<pdfrwt beam="1">  1       21 0.13947824E-02 0.12500000E+03</pdfrwt>
<pdfrwt beam="2">  1       21 0.60566956E-01 0.12500000E+03</pdfrwt>
<totfact> 0.51729597E+06</totfact>
</mgrwt>
</event>
<event>
 6      0 +1.3698540e+00 1.25000000e+02 7.54677100e-03 1.12640300e-01
       21 -1    0    0  502  501 +0.0000000000e+00 +0.0000000000e+00 +8.2863543528e+02 8.2863543528e+02 0.0000000000e+00 0.0000e+00 -1.0000e+00
       21 -1    0    0  501  502 -0.0000000000e+00 -0.0000000000e+00 -4.7140754953e+00 4.7140754953e+00 0.0000000000e+00 0.0000e+00 -1.0000e+00
       25  2    1    2    0    0 +0.0000000000e+00 +0.0000000000e+00 +8.2392135979e+02 8.3334951078e+02 1.2500000000e+02 0.0000e+00 0.0000e+00
      -15  1    3    3    0    0 +1.3349948130e+01 +5.5579762319e+01 +5.8005929350e+02 5.8287157487e+02 1.7770000000e+00 0.0000e+00 1.0000e+00
       15  1    3    3    0    0 -1.3349950505e+01 -5.5579754995e+01 +2.4386204282e+02 2.5047791121e+02 1.7770000000e+00 0.0000e+00 1.0000e+00
       22  1    3    3    0    0 +2.3757148278e-06 -7.3248563591e-06 +2.3496713572e-05 2.4726364276e-05 0.0000000000e+00 0.0000e+00 -1.0000e+00
<mgrwt>
<rscale>  2 0.12500000E+03</rscale>
<asrwt>0</asrwt>
<pdfrwt beam="1">  1       21 0.12185805E+00 0.12500000E+03</pdfrwt>
<pdfrwt beam="2">  1       21 0.69324697E-03 0.12500000E+03</pdfrwt>
<totfact> 0.26925251E+06</totfact>
</mgrwt>
</event>
<event>
 6      0 +1.3698540e+00 1.25000000e+02 7.54677100e-03 1.12640300e-01
       21 -1    0    0  502  501 +0.0000000000e+00 +0.0000000000e+00 +4.7963416627e+01 4.7963416627e+01 0.0000000000e+00 0.0000e+00 1.0000e+00
       21 -1    0    0  501  502 -0.0000000000e+00 -0.0000000000e+00 -8.1442279861e+01 8.1442279861e+01 0.0000000000e+00 0.0000e+00 1.0000e+00
       25  2    1    2    0    0 +0.0000000000e+00 +0.0000000000e+00 -3.3478863234e+01 1.2940569649e+02 1.2500000000e+02 0.0000e+00 0.0000e+00
      -15  1    3    3    0    0 +1.2176814457e+01 -1.1463117447e+01 -1.4186755410e+01 2.2002264202e+01 1.7770000000e+00 0.0000e+00 -1.0000e+00
       15  1    3    3    0    0 +2.1751561278e+01 -1.9409817006e+01 -4.5876473153e+01 5.4384556008e+01 1.7770000000e+00 0.0000e+00 -1.0000e+00
       22  1    3    3    0    0 -3.3928375736e+01 +3.0872934453e+01 +2.6584365329e+01 5.3018876278e+01 0.0000000000e+00 0.0000e+00 -1.0000e+00
<mgrwt>
<rscale>  2 0.12500000E+03</rscale>
<asrwt>0</asrwt>
<pdfrwt beam="1">  1       21 0.70534437E-02 0.12500000E+03</pdfrwt>
<pdfrwt beam="2">  1       21 0.11976806E-01 0.12500000E+03</pdfrwt>
<totfact> 0.88206048E+06</totfact>
</mgrwt>
</event>
<event>
 6      0 +1.3698540e+00 1.25000000e+02 7.54677100e-03 1.12640300e-01
       21 -1    0    0  502  501 +0.0000000000e+00 +0.0000000000e+00 +2.7189424294e+01 2.7189424294e+01 0.0000000000e+00 0.0000e+00 1.0000e+00
       21 -1    0    0  501  502 -0.0000000000e+00 -0.0000000000e+00 -1.4366799230e+02 1.4366799230e+02 0.0000000000e+00 0.0000e+00 1.0000e+00
       25  2    1    2    0    0 +0.0000000000e+00 +0.0000000000e+00 -1.1647856800e+02 1.7085741659e+02 1.2500000000e+02 0.0000e+00 0.0000e+00
      -15  1    3    3    0    0 -2.6251673923e+01 -1.5201730686e+01 -2.2424974199e+01 3.7766124985e+01 1.7770000000e+00 0.0000e+00 -1.0000e+00
       15  1    3    3    0    0 +9.7543046008e+00 -3.7493081336e+01 -4.2735282833e+01 5.7709095767e+01 1.7770000000e+00 0.0000e+00 -1.0000e+00
       22  1    3    3    0    0 +1.6497369322e+01 +5.2694812022e+01 -5.1318310966e+01 7.5382195836e+01 0.0000000000e+00 0.0000e+00 -1.0000e+00
<mgrwt>
<rscale>  2 0.12500000E+03</rscale>
<asrwt>0</asrwt>
<pdfrwt beam="1">  1       21 0.39984448E-02 0.12500000E+03</pdfrwt>
<pdfrwt beam="2">  1       21 0.21127646E-01 0.12500000E+03</pdfrwt>
<totfact> 0.81228331E+06</totfact>
</mgrwt>
</event>
<event>
 6      0 +1.3698540e+00 1.25000000e+02 7.54677100e-03 1.12640300e-01
       21 -1    0    0  502  501 +0.0000000000e+00 +0.0000000000e+00 +3.4964767083e+01 3.4964767083e+01 0.0000000000e+00 0.0000e+00 -1.0000e+00
       21 -1    0    0  501  502 -0.0000000000e+00 -0.0000000000e+00 -1.1171960593e+02 1.1171960593e+02 0.0000000000e+00 0.0000e+00 -1.0000e+00
       25  2    1    2    0    0 +0.0000000000e+00 +0.0000000000e+00 -7.6754838849e+01 1.4668437301e+02 1.2500000000e+02 0.0000e+00 0.0000e+00
      -15  1    3    3    0    0 -1.5492567741e+01 +1.5172628430e+01 -1.4921727419e+01 2.6382645563e+01 1.7770000000e+00 0.0000e+00 -1.0000e+00
       15  1    3    3    0    0 +1.2322386372e+01 +2.1864102852e+01 +1.8869376676e+01 3.1449822011e+01 1.7770000000e+00 0.0000e+00 -1.0000e+00
       22  1    3    3    0    0 +3.1701813683e+00 -3.7036731282e+01 -8.0702488108e+01 8.8851905443e+01 0.0000000000e+00 0.0000e+00 -1.0000e+00
<mgrwt>
<rscale>  2 0.12500000E+03</rscale>
<asrwt>0</asrwt>
<pdfrwt beam="1">  1       21 0.51418776E-02 0.12500000E+03</pdfrwt>
<pdfrwt beam="2">  1       21 0.16429354E-01 0.12500000E+03</pdfrwt>
<totfact> 0.85185906E+06</totfact>
</mgrwt>
</event>
<event>
 6      0 +1.3698540e+00 1.25000000e+02 7.54677100e-03 1.12640300e-01
       21 -1    0    0  502  501 +0.0000000000e+00 +0.0000000000e+00 +2.9861637549e+01 2.9861637549e+01 0.0000000000e+00 0.0000e+00 1.0000e+00
       21 -1    0    0  501  502 -0.0000000000e+00 -0.0000000000e+00 -1.3081164734e+02 1.3081164734e+02 0.0000000000e+00 0.0000e+00 1.0000e+00
       25  2    1    2    0    0 +0.0000000000e+00 +0.0000000000e+00 -1.0095000979e+02 1.6067328489e+02 1.2500000000e+02 0.0000e+00 0.0000e+00
      -15  1    3    3    0    0 -2.1907416100e+01 -1.4414485555e+01 +7.2695842476e+00 2.7271172657e+01 1.7770000000e+00 0.0000e+00 -1.0000e+00
       15  1    3    3    0    0 -1.4647620654e+01 +3.3542756834e+01 -5.4322555430e+01 6.5526842471e+01 1.7770000000e+00 0.0000e+00 -1.0000e+00
       22  1    3    3    0    0 +3.6555036754e+01 -1.9128271280e+01 -5.3897038605e+01 6.7875269758e+01 0.0000000000e+00 0.0000e+00 -1.0000e+00
<mgrwt>
<rscale>  2 0.12500000E+03</rscale>
<asrwt>0</asrwt>
<pdfrwt beam="1">  1       21 0.43914173E-02 0.12500000E+03</pdfrwt>
<pdfrwt beam="2">  1       21 0.19237007E-01 0.12500000E+03</pdfrwt>
<totfact> 0.82869069E+06</totfact>
</mgrwt>
</event>
<event>
 6      0 +1.3698540e+00 1.25000000e+02 7.54677100e-03 1.12640300e-01
       21 -1    0    0  502  501 +0.0000000000e+00 +0.0000000000e+00 +1.0627463760e+03 1.0627463760e+03 0.0000000000e+00 0.0000e+00 -1.0000e+00
       21 -1    0    0  501  502 -0.0000000000e+00 -0.0000000000e+00 -3.6756182739e+00 3.6756182739e+00 0.0000000000e+00 0.0000e+00 -1.0000e+00
       25  2    1    2    0    0 +0.0000000000e+00 +0.0000000000e+00 +1.0590707577e+03 1.0664219942e+03 1.2500000000e+02 0.0000e+00 0.0000e+00
      -15  1    3    3    0    0 -4.7046359502e+01 +3.6378150405e+01 +3.6624700499e+02 3.7104818577e+02 1.7770000000e+00 0.0000e+00 1.0000e+00
       15  1    3    3    0    0 +4.7046647823e+01 -3.6378403127e+01 +6.9282056026e+02 6.9537059309e+02 1.7770000000e+00 0.0000e+00 1.0000e+00
       22  1    3    3    0    0 -2.8832179125e-04 +2.5272147554e-04 +3.1958966363e-03 3.2188123445e-03 0.0000000000e+00 0.0000e+00 -1.0000e+00
<mgrwt>
<rscale>  2 0.12500000E+03</rscale>
<asrwt>0</asrwt>
<pdfrwt beam="1">  1       21 0.15628602E+00 0.12500000E+03</pdfrwt>
<pdfrwt beam="2">  1       21 0.54053284E-03 0.12500000E+03</pdfrwt>
<totfact> 0.19290898E+06</totfact>
</mgrwt>
</event>
<event>
 6      0 +1.3698540e+00 1.25000000e+02 7.54677100e-03 1.12640300e-01
       21 -1    0    0  502  501 +0.0000000000e+00 +0.0000000000e+00 +3.8857488161e+01 3.8857488161e+01 0.0000000000e+00 0.0000e+00 1.0000e+00
       21 -1    0    0  501  502 -0.0000000000e+00 -0.0000000000e+00 -1.0052759931e+02 1.0052759931e+02 0.0000000000e+00 0.0000e+00 1.0000e+00
       25  2    1    2    0    0 +0.0000000000e+00 +0.0000000000e+00 -6.1670111147e+01 1.3938508747e+02 1.2500000000e+02 0.0000e+00 0.0000e+00
      -15  1    3    3    0    0 +3.0985155525e+01 -2.2079587474e+01 -2.2197230208e+01 4.4084723021e+01 1.7770000000e+00 0.0000e+00 -1.0000e+00
       15  1    3    3    0    0 +1.6044323234e+01 +3.1275446026e+00 +1.4010501249e+01 2.1602169278e+01 1.7770000000e+00 0.0000e+00 -1.0000e+00
       22  1    3    3    0    0 -4.7029478759e+01 +1.8952042871e+01 -5.3483382188e+01 7.3698195171e+01 0.0000000000e+00 0.0000e+00 -1.0000e+00
<mgrwt>
<rscale>  2 0.12500000E+03</rscale>
<asrwt>0</asrwt>
<pdfrwt beam="1">  1       21 0.57143366E-02 0.12500000E+03</pdfrwt>
<pdfrwt beam="2">  1       21 0.14783470E-01 0.12500000E+03</pdfrwt>
<totfact> 0.86446553E+06</totfact>
</mgrwt>
</event>
<event>
 6      0 +1.3698540e+00 1.25000000e+02 7.54677100e-03 1.12640300e-01
       21 -1    0    0  502  501 +0.0000000000e+00 +0.0000000000e+00 +3.6634315011e+01 3.6634315011e+01 0.0000000000e+00 0.0000e+00 -1.0000e+00
       21 -1    0    0  501  502 -0.0000000000e+00 -0.0000000000e+00 -1.0662817085e+02 1.0662817085e+02 0.0000000000e+00 0.0000e+00 -1.0000e+00
       25  2    1    2    0    0 +0.0000000000e+00 +0.0000000000e+00 -6.9993855840e+01 1.4326248586e+02 1.2500000000e+02 0.0000e+00 0.0000e+00
      -15  1    3    3    0    0 +2.9140140975e+01 -1.2050199026e+01 +2.6815343670e+01 4.1431576096e+01 1.7770000000e+00 0.0000e+00 -1.0000e+00
       15  1    3    3    0    0 -2.9140140024e+01 +1.2050199377e+01 -9.6809199835e+01 1.0183090870e+02 1.7770000000e+00 0.0000e+00 -1.0000e+00
       22  1    3    3    0    0 -9.5129575383e-07 -3.5114009188e-07 +3.2297837716e-07 1.0642264831e-06 0.0000000000e+00 0.0000e+00 -1.0000e+00
<mgrwt>
<rscale>  2 0.12500000E+03</rscale>
<asrwt>0</asrwt>
<pdfrwt beam="1">  1       21 0.53873994E-02 0.12500000E+03</pdfrwt>
<pdfrwt beam="2">  1       21 0.15680613E-01 0.12500000E+03</pdfrwt>
<totfact> 0.85774564E+06</totfact>
</mgrwt>
</event>
<event>
 6      0 +1.3698540e+00 1.25000000e+02 7.54677100e-03 1.12640300e-01
       21 -1    0    0  502  501 +0.0000000000e+00 +0.0000000000e+00 +1.4965203303e+02 1.4965203303e+02 0.0000000000e+00 0.0000e+00 1.0000e+00
       21 -1    0    0  501  502 -0.0000000000e+00 -0.0000000000e+00 -2.6102218064e+01 2.6102218064e+01 0.0000000000e+00 0.0000e+00 1.0000e+00
       25  2    1    2    0    0 +0.0000000000e+00 +0.0000000000e+00 +1.2354981497e+02 1.7575425110e+02 1.2500000000e+02 0.0000e+00 0.0000e+00
      -15  1    3    3    0    0 -2.3324043903e+01 -3.1409618779e+01 +3.6206791618e+01 5.3335397853e+01 1.7770000000e+00 0.0000e+00 -1.0000e+00
       15  1    3    3    0    0 +1.4858190444e+01 -1.0068886720e+01 +7.6666723212e+01 7.8759713560e+01 1.7770000000e+00 0.0000e+00 -1.0000e+00
       22  1    3    3    0    0 +8.4658534589e+00 +4.1478505499e+01 +1.0676300137e+01 4.3659139683e+01 0.0000000000e+00 0.0000e+00 -1.0000e+00
<mgrwt>
<rscale>  2 0.12500000E+03</rscale>
<asrwt>0</asrwt>
<pdfrwt beam="1">  1       21 0.22007652E-01 0.12500000E+03</pdfrwt>
<pdfrwt beam="2">  1       21 0.38385615E-02 0.12500000E+03</pdfrwt>
<totfact> 0.80460903E+06</totfact>
</mgrwt>
</event>
<event>
 6      0 +1.3698540e+00 1.25000000e+02 7.54677100e-03 1.12640300e-01
       21 -1    0    0  502  501 +0.0000000000e+00 +0.0000000000e+00 +2.3103936373e+02 2.3103936373e+02 0.0000000000e+00 0.0000e+00 1.0000e+00
       21 -1    0    0  501  502 -0.0000000000e+00 -0.0000000000e+00 -1.6907292060e+01 1.6907292060e+01 0.0000000000e+00 0.0000e+00 1.0000e+00
       25  2    1    2    0    0 +0.0000000000e+00 +0.0000000000e+00 +2.1413207167e+02 2.4794665579e+02 1.2500000000e+02 0.0000e+00 0.0000e+00
      -15  1    3    3    0    0 +7.2644826415e+00 +5.8673918746e+00 +1.3369797728e+02 1.3403546490e+02 1.7770000000e+00 0.0000e+00 -1.0000e+00
       15  1    3    3    0    0 -5.8857214039e+00 -1.6677389318e+01 +9.4477812627e+01 9.6135278845e+01 1.7770000000e+00 0.0000e+00 -1.0000e+00
       22  1    3    3    0    0 -1.3787612376e+00 +1.0809997444e+01 -1.4043718230e+01 1.7775912043e+01 0.0000000000e+00 0.0000e+00 -1.0000e+00
<mgrwt>
<rscale>  2 0.12500000E+03</rscale>
<asrwt>0</asrwt>
<pdfrwt beam="1">  1       21 0.33976375E-01 0.12500000E+03</pdfrwt>
<pdfrwt beam="2">  1       21 0.24863666E-02 0.12500000E+03</pdfrwt>
<totfact> 0.70267854E+06</totfact>
</mgrwt>
</event>
<event>
 6      0 +1.3698540e+00 1.25000000e+02 7.54677100e-03 1.12640300e-01
       21 -1    0    0  502  501 +0.0000000000e+00 +0.0000000000e+00 +9.0984259742e+01 9.0984259742e+01 0.0000000000e+00 0.0000e+00 -1.0000e+00
       21 -1    0    0  501  502 -0.0000000000e+00 -0.0000000000e+00 -4.2933250334e+01 4.2933250334e+01 0.0000000000e+00 0.0000e+00 -1.0000e+00
       25  2    1    2    0    0 +0.0000000000e+00 +0.0000000000e+00 +4.8051009408e+01 1.3391751008e+02 1.2500000000e+02 0.0000e+00 0.0000e+00
      -15  1    3    3    0    0 +1.3541743314e+01 +1.6117671894e+01 -3.8992008363e+01 4.4347408093e+01 1.7770000000e+00 0.0000e+00 -1.0000e+00
       15  1    3    3    0    0 -1.3541743256e+01 -1.6117672325e+01 +8.7043018642e+01 8.9570101010e+01 1.7770000000e+00 0.0000e+00 -1.0000e+00
       22  1    3    3    0    0 -5.7706343615e-08 +4.3088517779e-07 -8.7174002803e-07 9.7412665240e-07 0.0000000000e+00 0.0000e+00 -1.0000e+00
<mgrwt>
<rscale>  2 0.12500000E+03</rscale>
<asrwt>0</asrwt>
<pdfrwt beam="1">  1       21 0.13380038E-01 0.12500000E+03</pdfrwt>
<pdfrwt beam="2">  1       21 0.63137133E-02 0.12500000E+03</pdfrwt>
<totfact> 0.87395885E+06</totfact>
</mgrwt>
</event>
<event>
 6      0 +1.3698540e+00 1.25000000e+02 7.54677100e-03 1.12640300e-01
       21 -1    0    0  502  501 +0.0000000000e+00 +0.0000000000e+00 +1.3609216499e+01 1.3609216499e+01 0.0000000000e+00 0.0000e+00 -1.0000e+00
       21 -1    0    0  501  502 -0.0000000000e+00 -0.0000000000e+00 -2.8702974932e+02 2.8702974932e+02 0.0000000000e+00 0.0000e+00 -1.0000e+00
       25  2    1    2    0    0 +0.0000000000e+00 +0.0000000000e+00 -2.7342053282e+02 3.0063896582e+02 1.2500000000e+02 0.0000e+00 0.0000e+00
      -15  1    3    3    0    0 -4.9677907053e+01 -3.3433626874e+01 -1.7955079587e+02 1.8928113451e+02 1.7770000000e+00 0.0000e+00 -1.0000e+00
       15  1    3    3    0    0 +4.9678235300e+01 +3.3432815206e+01 -9.3864443708e+01 1.1135246615e+02 1.7770000000e+00 0.0000e+00 -1.0000e+00
       22  1    3    3    0    0 -3.2824720597e-04 +8.1166769747e-04 -5.2932279619e-03 5.3651479883e-03 0.0000000000e+00 0.0000e+00 1.0000e+00
<mgrwt>
<rscale>  2 0.12500000E+03</rscale>
<asrwt>0</asrwt>
<pdfrwt beam="1">  1       21 0.20013556E-02 0.12500000E+03</pdfrwt>
<pdfrwt beam="2">  1       21 0.42210253E-01 0.12500000E+03</pdfrwt>
<totfact> 0.63876753E+06</totfact>
</mgrwt>
</event>
<event>
 6      0 +1.3698540e+00 1.25000000e+02 7.54677100e-03 1.12640300e-01
       21 -1    0    0  502  501 +0.0000000000e+00 +0.0000000000e+00 +2.1064725659e+02 2.1064725659e+02 0.0000000000e+00 0.0000e+00 1.0000e+00
       21 -1    0    0  501  502 -0.0000000000e+00 -0.0000000000e+00 -1.8544034531e+01 1.8544034531e+01 0.0000000000e+00 0.0000e+00 1.0000e+00
       25  2    1    2    0    0 +0.0000000000e+00 +0.0000000000e+00 +1.9210322206e+02 2.2919129112e+02 1.2500000000e+02 0.0000e+00 0.0000e+00
      -15  1    3    3    0    0 -1.7303058476e+01 +1.8612118545e+01 -8.5892131275e+00 2.6883807405e+01 1.7770000000e+00 0.0000e+00 1.0000e+00
       15  1    3    3    0    0 +1.7302345747e+01 -1.8615990152e+01 +2.0069287764e+02 2.0230352227e+02 1.7770000000e+00 0.0000e+00 1.0000e+00
       22  1    3    3    0    0 +7.1272982034e-04 +3.8716073494e-03 -4.4244981561e-04 3.9614503788e-03 0.0000000000e+00 0.0000e+00 -1.0000e+00
<mgrwt>
<rscale>  2 0.12500000E+03</rscale>
<asrwt>0</asrwt>
<pdfrwt beam="1">  1       21 0.30977536E-01 0.12500000E+03</pdfrwt>
<pdfrwt beam="2">  1       21 0.27270640E-02 0.12500000E+03</pdfrwt>
<totfact> 0.72746078E+06</totfact>
</mgrwt>
</event>
<event>
 6      0 +1.3698540e+00 1.25000000e+02 7.54677100e-03 1.12640300e-01
       21 -1    0    0  502  501 +0.0000000000e+00 +0.0000000000e+00 +9.4356140197e+01 9.4356140197e+01 0.0000000000e+00 0.0000e+00 -1.0000e+00
       21 -1    0    0  501  502 -0.0000000000e+00 -0.0000000000e+00 -4.1399001611e+01 4.1399001611e+01 0.0000000000e+00 0.0000e+00 -1.0000e+00
       25  2    1    2    0    0 +0.0000000000e+00 +0.0000000000e+00 +5.2957138586e+01 1.3575514181e+02 1.2500000000e+02 0.0000e+00 0.0000e+00
      -15  1    3    3    0    0 +2.9180436639e+01 +2.4817917027e+00 +1.9286226435e+01 3.5110873410e+01 1.7770000000e+00 0.0000e+00 -1.0000e+00
       15  1    3    3    0    0 -2.8493429155e-01 +3.1764219120e+01 +4.4350077591e+01 5.4581442957e+01 1.7770000000e+00 0.0000e+00 -1.0000e+00
       22  1    3    3    0    0 -2.8895502347e+01 -3.4246010823e+01 -1.0679165441e+01 4.6062825442e+01 0.0000000000e+00 0.0000e+00 -1.0000e+00
<mgrwt>
<rscale>  2 0.12500000E+03</rscale>
<asrwt>0</asrwt>
<pdfrwt beam="1">  1       21 0.13875903E-01 0.12500000E+03</pdfrwt>
<pdfrwt beam="2">  1       21 0.60880885E-02 0.12500000E+03</pdfrwt>
<totfact> 0.87074105E+06</totfact>
</mgrwt>
</event>
<event>
 6      0 +1.3698540e+00 1.25000000e+02 7.54677100e-03 1.12640300e-01
       21 -1    0    0  502  501 +0.0000000000e+00 +0.0000000000e+00 +3.9136663352e+01 3.9136663352e+01 0.0000000000e+00 0.0000e+00 -1.0000e+00
       21 -1    0    0  501  502 -0.0000000000e+00 -0.0000000000e+00 -9.9810501598e+01 9.9810501598e+01 0.0000000000e+00 0.0000e+00 -1.0000e+00
       25  2    1    2    0    0 +0.0000000000e+00 +0.0000000000e+00 -6.0673838247e+01 1.3894716495e+02 1.2500000000e+02 0.0000e+00 0.0000e+00
      -15  1    3    3    0    0 +2.7676112230e+01 +6.5013427661e+00 -3.7765935381e+01 4.7303892548e+01 1.7770000000e+00 0.0000e+00 -1.0000e+00
       15  1    3    3    0    0 -5.6857118686e+01 -1.3677523744e+01 -1.7862999819e+01 6.1172306583e+01 1.7770000000e+00 0.0000e+00 -1.0000e+00
       22  1    3    3    0    0 +2.9181006456e+01 +7.1761809779e+00 -5.0449030465e+00 3.0470965820e+01 0.0000000000e+00 0.0000e+00 -1.0000e+00
<mgrwt>
<rscale>  2 0.12500000E+03</rscale>
<asrwt>0</asrwt>
<pdfrwt beam="1">  1       21 0.57553918E-02 0.12500000E+03</pdfrwt>
<pdfrwt beam="2">  1       21 0.14678015E-01 0.12500000E+03</pdfrwt>
<totfact> 0.86522124E+06</totfact>
</mgrwt>
</event>
<event>
 6      0 +1.3698540e+00 1.25000000e+02 7.54677100e-03 1.12640300e-01
       21 -1    0    0  502  501 +0.0000000000e+00 +0.0000000000e+00 +2.4087364504e+02 2.4087364504e+02 0.0000000000e+00 0.0000e+00 1.0000e+00
       21 -1    0    0  501  502 -0.0000000000e+00 -0.0000000000e+00 -1.6217008712e+01 1.6217008712e+01 0.0000000000e+00 0.0000e+00 1.0000e+00
       25  2    1    2    0    0 +0.0000000000e+00 +0.0000000000e+00 +2.2465663632e+02 2.5709065375e+02 1.2500000000e+02 0.0000e+00 0.0000e+00
      -15  1    3    3    0    0 -6.2154265698e+01 -6.6269144847e-01 +1.2522181489e+02 1.3981148936e+02 1.7770000000e+00 0.0000e+00 -1.0000e+00
       15  1    3    3    0    0 +6.2155661980e+01 +6.6280118869e-01 +9.9430969772e+01 1.1727506598e+02 1.7770000000e+00 0.0000e+00 -1.0000e+00
       22  1    3    3    0    0 -1.3962820543e-03 -1.0974021845e-04 +3.8516422277e-03 4.0983892374e-03 0.0000000000e+00 0.0000e+00 -1.0000e+00
<mgrwt>
<rscale>  2 0.12500000E+03</rscale>
<asrwt>0</asrwt>
<pdfrwt beam="1">  1       21 0.35422593E-01 0.12500000E+03</pdfrwt>
<pdfrwt beam="2">  1       21 0.23848544E-02 0.12500000E+03</pdfrwt>
<totfact> 0.69100273E+06</totfact>
</mgrwt>
</event>
<event>
 6      0 +1.3698540e+00 1.25000000e+02 7.54677100e-03 1.12640300e-01
       21 -1    0    0  502  501 +0.0000000000e+00 +0.0000000000e+00 +1.7094775786e+00 1.7094775786e+00 0.0000000000e+00 0.0000e+00 -1.0000e+00
       21 -1    0    0  501  502 -0.0000000000e+00 -0.0000000000e+00 -2.2850548314e+03 2.2850548314e+03 0.0000000000e+00 0.0000e+00 -1.0000e+00
       25  2    1    2    0    0 +0.0000000000e+00 +0.0000000000e+00 -2.2833453538e+03 2.2867643089e+03 1.2500000000e+02 0.0000e+00 0.0000e+00
      -15  1    3    3    0    0 +4.8890752523e+01 -3.8242131269e+01 -1.2596931810e+03 1.2612227536e+03 1.7770000000e+00 0.0000e+00 -1.0000e+00
       15  1    3    3    0    0 -4.8942218255e+01 +3.8241313338e+01 -1.0233766354e+03 1.0252612517e+03 1.7770000000e+00 0.0000e+00 -1.0000e+00
       22  1    3    3    0    0 +5.1465731736e-02 +8.1793134126e-04 -2.7555651392e-01 2.8032264075e-01 0.0000000000e+00 0.0000e+00 1.0000e+00
<mgrwt>
<rscale>  2 0.12500000E+03</rscale>
<asrwt>0</asrwt>
<pdfrwt beam="1">  1       21 0.25139543E-03 0.12500000E+03</pdfrwt>
<pdfrwt beam="2">  1       21 0.33603524E+00 0.12500000E+03</pdfrwt>
<totfact> 0.36722058E+05</totfact>
</mgrwt>
</event>
<event>
 6      0 +1.3698540e+00 1.25000000e+02 7.54677100e-03 1.12640300e-01
       21 -1    0    0  502  501 +0.0000000000e+00 +0.0000000000e+00 +5.0080284728e+02 5.0080284728e+02 0.0000000000e+00 0.0000e+00 -1.0000e+00
       21 -1    0    0  501  502 -0.0000000000e+00 -0.0000000000e+00 -7.7999756215e+00 7.7999756215e+00 0.0000000000e+00 0.0000e+00 -1.0000e+00
       25  2    1    2    0    0 +0.0000000000e+00 +0.0000000000e+00 +4.9300287166e+02 5.0860282290e+02 1.2500000000e+02 0.0000e+00 0.0000e+00
      -15  1    3    3    0    0 +1.4206041026e+01 +5.9584415459e+01 +1.9669780526e+02 2.0602256791e+02 1.7770000000e+00 0.0000e+00 1.0000e+00
       15  1    3    3    0    0 -1.4246859753e+01 -5.9496628121e+01 +2.9593022832e+02 3.0219311629e+02 1.7770000000e+00 0.0000e+00 1.0000e+00
       22  1    3    3    0    0 +4.0818726360e-02 -8.7787338238e-02 +3.7483813376e-01 3.8713874993e-01 0.0000000000e+00 0.0000e+00 1.0000e+00
<mgrwt>
<rscale>  2 0.12500000E+03</rscale>
<asrwt>0</asrwt>
<pdfrwt beam="1">  1       21 0.73647456E-01 0.12500000E+03</pdfrwt>
<pdfrwt beam="2">  1       21 0.11470556E-02 0.12500000E+03</pdfrwt>
<totfact> 0.44692256E+06</totfact>
</mgrwt>
</event>
<event>
 6      0 +1.3698540e+00 1.25000000e+02 7.54677100e-03 1.12640300e-01
       21 -1    0    0  502  501 +0.0000000000e+00 +0.0000000000e+00 +2.0175454827e+02 2.0175454827e+02 0.0000000000e+00 0.0000e+00 -1.0000e+00
       21 -1    0    0  501  502 -0.0000000000e+00 -0.0000000000e+00 -1.9361397467e+01 1.9361397467e+01 0.0000000000e+00 0.0000e+00 -1.0000e+00
       25  2    1    2    0    0 +0.0000000000e+00 +0.0000000000e+00 +1.8239315081e+02 2.2111594574e+02 1.2500000000e+02 0.0000e+00 0.0000e+00
      -15  1    3    3    0    0 -3.9348572017e+00 -6.0976341666e+01 +1.1422628113e+02 1.2955461541e+02 1.7770000000e+00 0.0000e+00 -1.0000e+00
       15  1    3    3    0    0 +3.9348569741e+00 +6.0976341465e+01 +6.8166869000e+01 9.1561329589e+01 1.7770000000e+00 0.0000e+00 -1.0000e+00
       22  1    3    3    0    0 +2.2763825409e-07 +2.0172264291e-07 +6.8519034862e-07 7.4966460050e-07 0.0000000000e+00 0.0000e+00 -1.0000e+00
<mgrwt>
<rscale>  2 0.12500000E+03</rscale>
<asrwt>0</asrwt>
<pdfrwt beam="1">  1       21 0.29669785E-01 0.12500000E+03</pdfrwt>
<pdfrwt beam="2">  1       21 0.28472644E-02 0.12500000E+03</pdfrwt>
<totfact> 0.73840337E+06</totfact>
</mgrwt>
</event>
<event>
 6      0 +1.3698540e+00 1.25000000e+02 7.54677100e-03 1.12640300e-01
       21 -1    0    0  502  501 +0.0000000000e+00 +0.0000000000e+00 +2.7580470833e+02 2.7580470833e+02 0.0000000000e+00 0.0000e+00 -1.0000e+00
       21 -1    0    0  501  502 -0.0000000000e+00 -0.0000000000e+00 -1.4163101216e+01 1.4163101216e+01 0.0000000000e+00 0.0000e+00 -1.0000e+00
       25  2    1    2    0    0 +0.0000000000e+00 +0.0000000000e+00 +2.6164160712e+02 2.8996780955e+02 1.2500000000e+02 0.0000e+00 0.0000e+00
      -15  1    3    3    0    0 -1.2522361445e+01 -1.2982376767e+01 +1.1127146965e+02 1.1273796756e+02 1.7770000000e+00 0.0000e+00 -1.0000e+00
       15  1    3    3    0    0 +2.0606517770e+00 +1.7912853863e+01 +1.6070289666e+02 1.6172104174e+02 1.7770000000e+00 0.0000e+00 -1.0000e+00
       22  1    3    3    0    0 +1.0461709668e+01 -4.9304770957e+00 -1.0332759169e+01 1.5508800265e+01 0.0000000000e+00 0.0000e+00 -1.0000e+00
<mgrwt>
<rscale>  2 0.12500000E+03</rscale>
<asrwt>0</asrwt>
<pdfrwt beam="1">  1       21 0.40559513E-01 0.12500000E+03</pdfrwt>
<pdfrwt beam="2">  1       21 0.20828092E-02 0.12500000E+03</pdfrwt>
<totfact> 0.65113573E+06</totfact>
</mgrwt>
</event>
<event>
 6      0 +1.3698540e+00 1.25000000e+02 7.54677100e-03 1.12640300e-01
       21 -1    0    0  502  501 +0.0000000000e+00 +0.0000000000e+00 +6.3484035219e+01 6.3484035219e+01 0.0000000000e+00 0.0000e+00 -1.0000e+00
       21 -1    0    0  501  502 -0.0000000000e+00 -0.0000000000e+00 -6.1531217833e+01 6.1531217833e+01 0.0000000000e+00 0.0000e+00 -1.0000e+00
       25  2    1    2    0    0 +0.0000000000e+00 +0.0000000000e+00 +1.9528173865e+00 1.2501525305e+02 1.2500000000e+02 0.0000e+00 0.0000e+00
      -15  1    3    3    0    0 +2.3980023645e+01 -3.3316577924e+01 +1.1971745023e+01 4.2796218367e+01 1.7770000000e+00 0.0000e+00 -1.0000e+00
       15  1    3    3    0    0 +1.8570214624e+01 +2.3548840587e+00 -2.1288151064e+01 2.8403194449e+01 1.7770000000e+00 0.0000e+00 -1.0000e+00
       22  1    3    3    0    0 -4.2550238270e+01 +3.0961693865e+01 +1.1269223428e+01 5.3815840238e+01 0.0000000000e+00 0.0000e+00 -1.0000e+00
<mgrwt>
<rscale>  2 0.12500000E+03</rscale>
<asrwt>0</asrwt>
<pdfrwt beam="1">  1       21 0.93358876E-02 0.12500000E+03</pdfrwt>
<pdfrwt beam="2">  1       21 0.90487084E-02 0.12500000E+03</pdfrwt>
<totfact> 0.88999028E+06</totfact>
</mgrwt>
</event>
<event>
 6      0 +1.3698540e+00 1.25000000e+02 7.54677100e-03 1.12640300e-01
       21 -1    0    0  502  501 +0.0000000000e+00 +0.0000000000e+00 +4.2982833610e+01 4.2982833610e+01 0.0000000000e+00 0.0000e+00 -1.0000e+00
       21 -1    0    0  501  502 -0.0000000000e+00 -0.0000000000e+00 -9.0879303944e+01 9.0879303944e+01 0.0000000000e+00 0.0000e+00 -1.0000e+00
       25  2    1    2    0    0 +0.0000000000e+00 +0.0000000000e+00 -4.7896470334e+01 1.3386213755e+02 1.2500000000e+02 0.0000e+00 0.0000e+00
      -15  1    3    3    0    0 -5.7274466908e+01 -1.8004349482e+01 -4.2451548737e+01 7.3551430163e+01 1.7770000000e+00 0.0000e+00 1.0000e+00
       15  1    3    3    0    0 +5.7274673173e+01 +1.8004411373e+01 -5.4447806525e+00 6.0310450017e+01 1.7770000000e+00 0.0000e+00 1.0000e+00
       22  1    3    3    0    0 -2.0626505972e-04 -6.1891143420e-05 -1.4094596190e-04 2.5737434346e-04 0.0000000000e+00 0.0000e+00 -1.0000e+00
<mgrwt>
<rscale>  2 0.12500000E+03</rscale>
<asrwt>0</asrwt>
<pdfrwt beam="1">  1       21 0.63210049E-02 0.12500000E+03</pdfrwt>
<pdfrwt beam="2">  1       21 0.13364604E-01 0.12500000E+03</pdfrwt>
<totfact> 0.87405641E+06</totfact>
</mgrwt>
</event>
<event>
 6      0 +1.3698540e+00 1.25000000e+02 7.54677100e-03 1.12640300e-01
       21 -1    0    0  502  501 +0.0000000000e+00 +0.0000000000e+00 +5.4085602513e+00 5.4085602513e+00 0.0000000000e+00 0.0000e+00 1.0000e+00
       21 -1    0    0  501  502 -0.0000000000e+00 -0.0000000000e+00 -7.2223472023e+02 7.2223472023e+02 0.0000000000e+00 0.0000e+00 1.0000e+00
       25  2    1    2    0    0 +0.0000000000e+00 +0.0000000000e+00 -7.1682615998e+02 7.2764328049e+02 1.2500000000e+02 0.0000e+00 0.0000e+00
      -15  1    3    3    0    0 -2.0742654263e+01 -1.6112701491e+01 -8.1096320484e+01 8.5262229506e+01 1.7770000000e+00 0.0000e+00 -1.0000e+00
       15  1    3    3    0    0 +5.2199597612e+01 +2.5946273473e+01 -3.6083497507e+02 3.6551750172e+02 1.7770000000e+00 0.0000e+00 -1.0000e+00
       22  1    3    3    0    0 -3.1456943349e+01 -9.8335719820e+00 -2.7489486418e+02 2.7686354901e+02 0.0000000000e+00 0.0000e+00 -1.0000e+00
<mgrwt>
<rscale>  2 0.12500000E+03</rscale>
<asrwt>0</asrwt>
<pdfrwt beam="1">  1       21 0.79537647E-03 0.12500000E+03</pdfrwt>
<pdfrwt beam="2">  1       21 0.10621099E+00 0.12500000E+03</pdfrwt>
<totfact> 0.31547267E+06</totfact>
</mgrwt>
</event>
<event>
 6      0 +1.3698540e+00 1.25000000e+02 7.54677100e-03 1.12640300e-01
       21 -1    0    0  502  501 +0.0000000000e+00 +0.0000000000e+00 +4.5508344870e+02 4.5508344870e+02 0.0000000000e+00 0.0000e+00 1.0000e+00
       21 -1    0    0  501  502 -0.0000000000e+00 -0.0000000000e+00 -8.5835905726e+00 8.5835905726e+00 0.0000000000e+00 0.0000e+00 1.0000e+00
       25  2    1    2    0    0 +0.0000000000e+00 +0.0000000000e+00 +4.4649985813e+02 4.6366703927e+02 1.2500000000e+02 0.0000e+00 0.0000e+00
      -15  1    3    3    0    0 +4.6322753717e+01 -1.4103371964e+01 +1.1048641643e+02 1.2064455461e+02 1.7770000000e+00 0.0000e+00 -1.0000e+00
       15  1    3    3    0    0 -3.4530400006e+01 +2.6224417141e+01 +3.0129843827e+02 3.0440758074e+02 1.7770000000e+00 0.0000e+00 -1.0000e+00
       22  1    3    3    0    0 -1.1792353711e+01 -1.2121045177e+01 +3.4715003487e+01 3.8614903980e+01 0.0000000000e+00 0.0000e+00 -1.0000e+00
<mgrwt>
<rscale>  2 0.12500000E+03</rscale>
<asrwt>0</asrwt>
<pdfrwt beam="1">  1       21 0.66924021E-01 0.12500000E+03</pdfrwt>
<pdfrwt beam="2">  1       21 0.12622930E-02 0.12500000E+03</pdfrwt>
<totfact> 0.48153992E+06</totfact>
</mgrwt>
</event>
<event>
 6      0 +1.3698540e+00 1.25000000e+02 7.54677100e-03 1.12640300e-01
       21 -1    0    0  502  501 +0.0000000000e+00 +0.0000000000e+00 +2.7253269852e+02 2.7253269852e+02 0.0000000000e+00 0.0000e+00 -1.0000e+00
       21 -1    0    0  501  502 -0.0000000000e+00 -0.0000000000e+00 -1.4333142486e+01 1.4333142486e+01 0.0000000000e+00 0.0000e+00 -1.0000e+00
       25  2    1    2    0    0 +0.0000000000e+00 +0.0000000000e+00 +2.5819955603e+02 2.8686584100e+02 1.2500000000e+02 0.0000e+00 0.0000e+00
      -15  1    3    3    0    0 -2.1245587270e+01 -7.2345254561e+00 +1.5482185312e+02 1.5645023895e+02 1.7770000000e+00 0.0000e+00 -1.0000e+00
       15  1    3    3    0    0 -1.2853185840e+01 -3.6071958834e+00 +9.1837594127e+01 9.2819812930e+01 1.7770000000e+00 0.0000e+00 -1.0000e+00
       22  1    3    3    0    0 +3.4098773110e+01 +1.0841721339e+01 +1.1540108799e+01 3.7595789131e+01 0.0000000000e+00 0.0000e+00 -1.0000e+00
<mgrwt>
<rscale>  2 0.12500000E+03</rscale>
<asrwt>0</asrwt>
<pdfrwt beam="1">  1       21 0.40078335E-01 0.12500000E+03</pdfrwt>
<pdfrwt beam="2">  1       21 0.21078152E-02 0.12500000E+03</pdfrwt>
<totfact> 0.65477698E+06</totfact>
</mgrwt>
</event>
<event>
 6      0 +1.3698540e+00 1.25000000e+02 7.54677100e-03 1.12640300e-01
       21 -1    0    0  502  501 +0.0000000000e+00 +0.0000000000e+00 +1.2957540514e+01 1.2957540514e+01 0.0000000000e+00 0.0000e+00 1.0000e+00
       21 -1    0    0  501  502 -0.0000000000e+00 -0.0000000000e+00 -3.0146538964e+02 3.0146538964e+02 0.0000000000e+00 0.0000e+00 1.0000e+00
       25  2    1    2    0    0 +0.0000000000e+00 +0.0000000000e+00 -2.8850784913e+02 3.1442293016e+02 1.2500000000e+02 0.0000e+00 0.0000e+00
      -15  1    3    3    0    0 -2.8973409679e+01 +6.8037234398e+00 -2.8076141299e+01 4.0953346144e+01 1.7770000000e+00 0.0000e+00 -1.0000e+00
       15  1    3    3    0    0 -1.3903123530e+01 +2.5641691210e+01 -1.0552381063e+02 1.0949532187e+02 1.7770000000e+00 0.0000e+00 -1.0000e+00
       22  1    3    3    0    0 +4.2876533209e+01 -3.2445414650e+01 -1.5490789719e+02 1.6397426214e+02 0.0000000000e+00 0.0000e+00 -1.0000e+00
<mgrwt>
<rscale>  2 0.12500000E+03</rscale>
<asrwt>0</asrwt>
<pdfrwt beam="1">  1       21 0.19055211E-02 0.12500000E+03</pdfrwt>
<pdfrwt beam="2">  1       21 0.44333136E-01 0.12500000E+03</pdfrwt>
<totfact> 0.62321273E+06</totfact>
</mgrwt>
</event>
<event>
 6      0 +1.3698540e+00 1.25000000e+02 7.54677100e-03 1.12640300e-01
       21 -1    0    0  502  501 +0.0000000000e+00 +0.0000000000e+00 +3.7652679901e+01 3.7652679901e+01 0.0000000000e+00 0.0000e+00 -1.0000e+00
       21 -1    0    0  501  502 -0.0000000000e+00 -0.0000000000e+00 -1.0374427558e+02 1.0374427558e+02 0.0000000000e+00 0.0000e+00 -1.0000e+00
       25  2    1    2    0    0 +0.0000000000e+00 +0.0000000000e+00 -6.6091595678e+01 1.4139695548e+02 1.2500000000e+02 0.0000e+00 0.0000e+00
      -15  1    3    3    0    0 -1.7836360740e+01 -4.2347001371e+00 -4.3806808362e+01 4.7521180936e+01 1.7770000000e+00 0.0000e+00 -1.0000e+00
       15  1    3    3    0    0 -2.9798125186e+01 +1.2189610646e+01 -3.1083338943e+01 4.4786678390e+01 1.7770000000e+00 0.0000e+00 -1.0000e+00
       22  1    3    3    0    0 +4.7634485926e+01 -7.9549105090e+00 +8.7985516256e+00 4.9089096156e+01 0.0000000000e+00 0.0000e+00 -1.0000e+00
<mgrwt>
<rscale>  2 0.12500000E+03</rscale>
<asrwt>0</asrwt>
<pdfrwt beam="1">  1       21 0.55371589E-02 0.12500000E+03</pdfrwt>
<pdfrwt beam="2">  1       21 0.15256511E-01 0.12500000E+03</pdfrwt>
<totfact> 0.86098453E+06</totfact>
</mgrwt>
</event>
<event>
 6      0 +1.3698540e+00 1.25000000e+02 7.54677100e-03 1.12640300e-01
       21 -1    0    0  502  501 +0.0000000000e+00 +0.0000000000e+00 +7.0211611160e+01 7.0211611160e+01 0.0000000000e+00 0.0000e+00 1.0000e+00
       21 -1    0    0  501  502 -0.0000000000e+00 -0.0000000000e+00 -5.5635384739e+01 5.5635384739e+01 0.0000000000e+00 0.0000e+00 1.0000e+00
       25  2    1    2    0    0 +0.0000000000e+00 +0.0000000000e+00 +1.4576226421e+01 1.2584699590e+02 1.2500000000e+02 0.0000e+00 0.0000e+00
      -15  1    3    3    0    0 +1.4371815555e+01 -5.7519848016e+01 +1.8227534803e+01 6.2052258235e+01 1.7770000000e+00 0.0000e+00 -1.0000e+00
       15  1    3    3    0    0 -1.5608420348e+01 +5.9295257630e+01 -4.4167105251e+00 6.1499718894e+01 1.7770000000e+00 0.0000e+00 -1.0000e+00
       22  1    3    3    0    0 +1.2366047925e+00 -1.7754096137e+00 +7.6540214292e-01 2.2950187689e+00 0.0000000000e+00 0.0000e+00 1.0000e+00
<mgrwt>
<rscale>  2 0.12500000E+03</rscale>
<asrwt>0</asrwt>
<pdfrwt beam="1">  1       21 0.10325237E-01 0.12500000E+03</pdfrwt>
<pdfrwt beam="2">  1       21 0.81816742E-02 0.12500000E+03</pdfrwt>
<totfact> 0.88839529E+06</totfact>
</mgrwt>
</event>
<event>
 6      0 +1.3698540e+00 1.25000000e+02 7.54677100e-03 1.12640300e-01
       21 -1    0    0  502  501 +0.0000000000e+00 +0.0000000000e+00 +1.2806362643e+02 1.2806362643e+02 0.0000000000e+00 0.0000e+00 1.0000e+00
       21 -1    0    0  501  502 -0.0000000000e+00 -0.0000000000e+00 -3.0502415938e+01 3.0502415938e+01 0.0000000000e+00 0.0000e+00 1.0000e+00
       25  2    1    2    0    0 +0.0000000000e+00 +0.0000000000e+00 +9.7561210495e+01 1.5856604237e+02 1.2500000000e+02 0.0000e+00 0.0000e+00
      -15  1    3    3    0    0 +1.4391735097e+01 -1.1700055452e+01 -1.5649380395e+01 2.4332574307e+01 1.7770000000e+00 0.0000e+00 -1.0000e+00
       15  1    3    3    0    0 -1.1191100691e+01 -2.1327632631e+01 +1.0570486438e+01 2.6362882256e+01 1.7770000000e+00 0.0000e+00 -1.0000e+00
       22  1    3    3    0    0 -3.2006344058e+00 +3.3027688082e+01 +1.0264010445e+02 1.0787058581e+02 0.0000000000e+00 0.0000e+00 -1.0000e+00
<mgrwt>
<rscale>  2 0.12500000E+03</rscale>
<asrwt>0</asrwt>
<pdfrwt beam="1">  1       21 0.18832886E-01 0.12500000E+03</pdfrwt>
<pdfrwt beam="2">  1       21 0.44856495E-02 0.12500000E+03</pdfrwt>
<totfact> 0.83212276E+06</totfact>
</mgrwt>
</event>
<event>
 6      0 +1.3698540e+00 1.25000000e+02 7.54677100e-03 1.12640300e-01
       21 -1    0    0  502  501 +0.0000000000e+00 +0.0000000000e+00 +5.5949286312e+02 5.5949286312e+02 0.0000000000e+00 0.0000e+00 -1.0000e+00
       21 -1    0    0  501  502 -0.0000000000e+00 -0.0000000000e+00 -6.9817691297e+00 6.9817691297e+00 0.0000000000e+00 0.0000e+00 -1.0000e+00
       25  2    1    2    0    0 +0.0000000000e+00 +0.0000000000e+00 +5.5251109399e+02 5.6647463225e+02 1.2500000000e+02 0.0000e+00 0.0000e+00
      -15  1    3    3    0    0 -3.8364395482e+01 +1.8956477093e+01 +3.8984953821e+02 3.9219509818e+02 1.7770000000e+00 0.0000e+00 -1.0000e+00
       15  1    3    3    0    0 +1.0625972409e+01 +8.4766425212e+00 +9.6527153847e+01 9.7495712300e+01 1.7770000000e+00 0.0000e+00 -1.0000e+00
       22  1    3    3    0    0 +2.7738423074e+01 -2.7433119615e+01 +6.6134401926e+01 7.6783821764e+01 0.0000000000e+00 0.0000e+00 -1.0000e+00
<mgrwt>
<rscale>  2 0.12500000E+03</rscale>
<asrwt>0</asrwt>
<pdfrwt beam="1">  1       21 0.82278332E-01 0.12500000E+03</pdfrwt>
<pdfrwt beam="2">  1       21 0.10267311E-02 0.12500000E+03</pdfrwt>
<totfact> 0.40696467E+06</totfact>
</mgrwt>
</event>
<event>
 6      0 +1.3698540e+00 1.25000000e+02 7.54677100e-03 1.12640300e-01
       21 -1    0    0  502  501 +0.0000000000e+00 +0.0000000000e+00 +8.5782078627e+01 8.5782078627e+01 0.0000000000e+00 0.0000e+00 1.0000e+00
       21 -1    0    0  501  502 -0.0000000000e+00 -0.0000000000e+00 -4.5536900744e+01 4.5536900744e+01 0.0000000000e+00 0.0000e+00 1.0000e+00
       25  2    1    2    0    0 +0.0000000000e+00 +0.0000000000e+00 +4.0245177883e+01 1.3131897937e+02 1.2500000000e+02 0.0000e+00 0.0000e+00
      -15  1    3    3    0    0 -3.2547376777e+01 -3.1918004771e+01 +6.3046208460e+01 7.7820774179e+01 1.7770000000e+00 0.0000e+00 1.0000e+00
       15  1    3    3    0    0 +3.3165977458e+01 +3.2786349811e+01 -2.3470441831e+01 5.2239316261e+01 1.7770000000e+00 0.0000e+00 1.0000e+00
       22  1    3    3    0    0 -6.1860068158e-01 -8.6834504028e-01 +6.6941125439e-01 1.2588889306e+00 0.0000000000e+00 0.0000e+00 1.0000e+00
<mgrwt>
<rscale>  2 0.12500000E+03</rscale>
<asrwt>0</asrwt>
<pdfrwt beam="1">  1       21 0.12615012E-01 0.12500000E+03</pdfrwt>
<pdfrwt beam="2">  1       21 0.66966031E-02 0.12500000E+03</pdfrwt>
<totfact> 0.87858504E+06</totfact>
</mgrwt>
</event>
<event>
 6      0 +1.3698540e+00 1.25000000e+02 7.54677100e-03 1.12640300e-01
       21 -1    0    0  502  501 +0.0000000000e+00 +0.0000000000e+00 +9.2579941357e+01 9.2579941357e+01 0.0000000000e+00 0.0000e+00 1.0000e+00
       21 -1    0    0  501  502 -0.0000000000e+00 -0.0000000000e+00 -4.2193265007e+01 4.2193265007e+01 0.0000000000e+00 0.0000e+00 1.0000e+00
       25  2    1    2    0    0 +0.0000000000e+00 +0.0000000000e+00 +5.0386676350e+01 1.3477320636e+02 1.2500000000e+02 0.0000e+00 0.0000e+00
      -15  1    3    3    0    0 +9.8373921547e+00 +1.0285193807e+01 +6.9638943391e+00 1.5944060004e+01 1.7770000000e+00 0.0000e+00 -1.0000e+00
       15  1    3    3    0    0 -6.9046434377e+00 +4.2708193874e+01 -9.0057629690e+00 4.4225845618e+01 1.7770000000e+00 0.0000e+00 -1.0000e+00
       22  1    3    3    0    0 -2.9327487171e+00 -5.2993387680e+01 +5.2428544981e+01 7.4603300742e+01 0.0000000000e+00 0.0000e+00 -1.0000e+00
<mgrwt>
<rscale>  2 0.12500000E+03</rscale>
<asrwt>0</asrwt>
<pdfrwt beam="1">  1       21 0.13614697E-01 0.12500000E+03</pdfrwt>
<pdfrwt beam="2">  1       21 0.62048919E-02 0.12500000E+03</pdfrwt>
<totfact> 0.87245588E+06</totfact>
</mgrwt>
</event>
<event>
 6      0 +1.3698540e+00 1.25000000e+02 7.54677100e-03 1.12640300e-01
       21 -1    0    0  502  501 +0.0000000000e+00 +0.0000000000e+00 +6.5136017611e+02 6.5136017611e+02 0.0000000000e+00 0.0000e+00 -1.0000e+00
       21 -1    0    0  501  502 -0.0000000000e+00 -0.0000000000e+00 -5.9970660523e+00 5.9970660523e+00 0.0000000000e+00 0.0000e+00 -1.0000e+00
       25  2    1    2    0    0 +0.0000000000e+00 +0.0000000000e+00 +6.4536311006e+02 6.5735724216e+02 1.2500000000e+02 0.0000e+00 0.0000e+00
      -15  1    3    3    0    0 +1.0363363717e+01 -6.0473908055e+01 +2.6077334082e+02 2.6789995497e+02 1.7770000000e+00 0.0000e+00 -1.0000e+00
       15  1    3    3    0    0 -1.0363414702e+01 +6.0474047658e+01 +3.8458912088e+02 3.8945662201e+02 1.7770000000e+00 0.0000e+00 -1.0000e+00
       22  1    3    3    0    0 +5.0984561745e-05 -1.3960278164e-04 +6.4849236101e-04 6.6530497102e-04 0.0000000000e+00 0.0000e+00 -1.0000e+00
<mgrwt>
<rscale>  2 0.12500000E+03</rscale>
<asrwt>0</asrwt>
<pdfrwt beam="1">  1       21 0.95788213E-01 0.12500000E+03</pdfrwt>
<pdfrwt beam="2">  1       21 0.88192193E-03 0.12500000E+03</pdfrwt>
<totfact> 0.35152803E+06</totfact>
</mgrwt>
</event>
<event>
 6      0 +1.3698540e+00 1.25000000e+02 7.54677100e-03 1.12640300e-01
       21 -1    0    0  502  501 +0.0000000000e+00 +0.0000000000e+00 +5.6154215255e+02 5.6154215255e+02 0.0000000000e+00 0.0000e+00 -1.0000e+00
       21 -1    0    0  501  502 -0.0000000000e+00 -0.0000000000e+00 -6.9562898926e+00 6.9562898926e+00 0.0000000000e+00 0.0000e+00 -1.0000e+00
       25  2    1    2    0    0 +0.0000000000e+00 +0.0000000000e+00 +5.5458586265e+02 5.6849844244e+02 1.2500000000e+02 0.0000e+00 0.0000e+00
      -15  1    3    3    0    0 +1.7357298333e+01 -3.2325840457e+01 +5.0726359764e+02 5.0859192973e+02 1.7770000000e+00 0.0000e+00 -1.0000e+00
       15  1    3    3    0    0 -1.7357298300e+01 +3.2325840300e+01 +4.7322264621e+01 5.9906512278e+01 1.7770000000e+00 0.0000e+00 -1.0000e+00
       22  1    3    3    0    0 -3.3201755515e-08 +1.5724731733e-07 +2.9237270143e-07 3.3363283999e-07 0.0000000000e+00 0.0000e+00 -1.0000e+00
<mgrwt>
<rscale>  2 0.12500000E+03</rscale>
<asrwt>0</asrwt>
<pdfrwt beam="1">  1       21 0.82579698E-01 0.12500000E+03</pdfrwt>
<pdfrwt beam="2">  1       21 0.10229842E-02 0.12500000E+03</pdfrwt>
<totfact> 0.40563202E+06</totfact>
</mgrwt>
</event>
<event>
 6      0 +1.3698540e+00 1.25000000e+02 7.54677100e-03 1.12640300e-01
       21 -1    0    0  502  501 +0.0000000000e+00 +0.0000000000e+00 +2.6936716872e+02 2.6936716872e+02 0.0000000000e+00 0.0000e+00 1.0000e+00
       21 -1    0    0  501  502 -0.0000000000e+00 -0.0000000000e+00 -1.4501581683e+01 1.4501581683e+01 0.0000000000e+00 0.0000e+00 1.0000e+00
       25  2    1    2    0    0 +0.0000000000e+00 +0.0000000000e+00 +2.5486558704e+02 2.8386875040e+02 1.2500000000e+02 0.0000e+00 0.0000e+00
      -15  1    3    3    0    0 -3.1141036847e+01 +9.5131772663e+00 +4.1763427660e+01 5.2986850601e+01 1.7770000000e+00 0.0000e+00 -1.0000e+00
       15  1    3    3    0    0 +2.1927867443e+00 +1.9886664633e+01 +7.9176460760e+00 2.1590150355e+01 1.7770000000e+00 0.0000e+00 -1.0000e+00
       22  1    3    3    0    0 +2.8948250103e+01 -2.9399841899e+01 +2.0518451333e+02 2.0929174948e+02 0.0000000000e+00 0.0000e+00 -1.0000e+00
<mgrwt>
<rscale>  2 0.12500000E+03</rscale>
<asrwt>0</asrwt>
<pdfrwt beam="1">  1       21 0.39612816E-01 0.12500000E+03</pdfrwt>
<pdfrwt beam="2">  1       21 0.21325857E-02 0.12500000E+03</pdfrwt>
<totfact> 0.65831562E+06</totfact>
</mgrwt>
</event>
<event>
 6      0 +1.3698540e+00 1.25000000e+02 7.54677100e-03 1.12640300e-01
       21 -1    0    0  502  501 +0.0000000000e+00 +0.0000000000e+00 +2.4008632591e+02 2.4008632591e+02 0.0000000000e+00 0.0000e+00 1.0000e+00
       21 -1    0    0  501  502 -0.0000000000e+00 -0.0000000000e+00 -1.6270189421e+01 1.6270189421e+01 0.0000000000e+00 0.0000e+00 1.0000e+00
       25  2    1    2    0    0 +0.0000000000e+00 +0.0000000000e+00 +2.2381613649e+02 2.5635651533e+02 1.2500000000e+02 0.0000e+00 0.0000e+00
      -15  1    3    3    0    0 +4.8965543408e+01 +2.3850403102e+01 +1.7467250239e+02 1.8297570054e+02 1.7770000000e+00 0.0000e+00 -1.0000e+00
       15  1    3    3    0    0 -4.8965453956e+01 -2.3849958506e+01 +4.9142947634e+01 7.3379992048e+01 1.7770000000e+00 0.0000e+00 -1.0000e+00
       22  1    3    3    0    0 -8.9452458460e-05 -4.4459536809e-04 +6.8647764936e-04 8.2275047659e-04 0.0000000000e+00 0.0000e+00 -1.0000e+00
<mgrwt>
<rscale>  2 0.12500000E+03</rscale>
<asrwt>0</asrwt>
<pdfrwt beam="1">  1       21 0.35306811E-01 0.12500000E+03</pdfrwt>
<pdfrwt beam="2">  1       21 0.23926750E-02 0.12500000E+03</pdfrwt>
<totfact> 0.69192967E+06</totfact>
</mgrwt>
</event>
<event>
 6      0 +1.3698540e+00 1.25000000e+02 7.54677100e-03 1.12640300e-01
       21 -1    0    0  502  501 +0.0000000000e+00 +0.0000000000e+00 +1.1103248357e+01 1.1103248357e+01 0.0000000000e+00 0.0000e+00 1.0000e+00
       21 -1    0    0  501  502 -0.0000000000e+00 -0.0000000000e+00 -3.5181145863e+02 3.5181145863e+02 0.0000000000e+00 0.0000e+00 1.0000e+00
       25  2    1    2    0    0 +0.0000000000e+00 +0.0000000000e+00 -3.4070821028e+02 3.6291470699e+02 1.2500000000e+02 0.0000e+00 0.0000e+00
      -15  1    3    3    0    0 +4.2182432513e+01 +1.6776302404e+01 -2.9474119062e+02 2.9822194606e+02 1.7770000000e+00 0.0000e+00 -1.0000e+00
       15  1    3    3    0    0 -4.1655602322e+01 -1.6757305045e+01 -4.5737947203e+01 6.4117969560e+01 1.7770000000e+00 0.0000e+00 -1.0000e+00
       22  1    3    3    0    0 -5.2683019090e-01 -1.8997359926e-02 -2.2907248693e-01 5.7479140048e-01 0.0000000000e+00 0.0000e+00 -1.0000e+00
<mgrwt>
<rscale>  2 0.12500000E+03</rscale>
<asrwt>0</asrwt>
<pdfrwt beam="1">  1       21 0.16328309E-02 0.12500000E+03</pdfrwt>
<pdfrwt beam="2">  1       21 0.51736970E-01 0.12500000E+03</pdfrwt>
<totfact> 0.57222861E+06</totfact>
</mgrwt>
</event>
<event>
 6      0 +1.3698540e+00 1.25000000e+02 7.54677100e-03 1.12640300e-01
       21 -1    0    0  502  501 +0.0000000000e+00 +0.0000000000e+00 +1.0842762044e+02 1.0842762044e+02 0.0000000000e+00 0.0000e+00 1.0000e+00
       21 -1    0    0  501  502 -0.0000000000e+00 -0.0000000000e+00 -3.6026337055e+01 3.6026337055e+01 0.0000000000e+00 0.0000e+00 1.0000e+00
       25  2    1    2    0    0 +0.0000000000e+00 +0.0000000000e+00 +7.2401283382e+01 1.4445395749e+02 1.2500000000e+02 0.0000e+00 0.0000e+00
      -15  1    3    3    0    0 +1.6222384605e+01 -3.2905851826e+01 +1.7448326593e+01 4.0664021894e+01 1.7770000000e+00 0.0000e+00 -1.0000e+00
       15  1    3    3    0    0 -2.1026859431e+01 -2.1179388770e+01 +5.6065458676e+00 3.0418520867e+01 1.7770000000e+00 0.0000e+00 -1.0000e+00
       22  1    3    3    0    0 +4.8044748258e+00 +5.4085240597e+01 +4.9346410923e+01 7.3371414732e+01 0.0000000000e+00 0.0000e+00 -1.0000e+00
<mgrwt>
<rscale>  2 0.12500000E+03</rscale>
<asrwt>0</asrwt>
<pdfrwt beam="1">  1       21 0.15945238E-01 0.12500000E+03</pdfrwt>
<pdfrwt beam="2">  1       21 0.52979908E-02 0.12500000E+03</pdfrwt>
<totfact> 0.85568310E+06</totfact>
</mgrwt>
</event>
<event>
 6      0 +1.3698540e+00 1.25000000e+02 7.54677100e-03 1.12640300e-01
       21 -1    0    0  502  501 +0.0000000000e+00 +0.0000000000e+00 +1.4685889023e+02 1.4685889023e+02 0.0000000000e+00 0.0000e+00 1.0000e+00
       21 -1    0    0  501  502 -0.0000000000e+00 -0.0000000000e+00 -2.6598662116e+01 2.6598662116e+01 0.0000000000e+00 0.0000e+00 1.0000e+00
       25  2    1    2    0    0 +0.0000000000e+00 +0.0000000000e+00 +1.2026022811e+02 1.7345755235e+02 1.2500000000e+02 0.0000e+00 0.0000e+00
      -15  1    3    3    0    0 -4.2096412067e+01 +1.2932043487e+01 +1.2162314855e+02 1.2936264395e+02 1.7770000000e+00 0.0000e+00 1.0000e+00
       15  1    3    3    0    0 +4.2096411603e+01 -1.2932043620e+01 -1.3629204687e+00 4.4094907907e+01 1.7770000000e+00 0.0000e+00 1.0000e+00
       22  1    3    3    0    0 +4.6324509718e-07 +1.3361645468e-07 +2.1831885096e-08 4.8262408584e-07 0.0000000000e+00 0.0000e+00 1.0000e+00
<mgrwt>
<rscale>  2 0.12500000E+03</rscale>
<asrwt>0</asrwt>
<pdfrwt beam="1">  1       21 0.21596895E-01 0.12500000E+03</pdfrwt>
<pdfrwt beam="2">  1       21 0.39115680E-02 0.12500000E+03</pdfrwt>
<totfact> 0.80819076E+06</totfact>
</mgrwt>
</event>
<event>
 6      0 +1.3698540e+00 1.25000000e+02 7.54677100e-03 1.12640300e-01
       21 -1    0    0  502  501 +0.0000000000e+00 +0.0000000000e+00 +4.5993001626e+00 4.5993001626e+00 0.0000000000e+00 0.0000e+00 1.0000e+00
       21 -1    0    0  501  502 -0.0000000000e+00 -0.0000000000e+00 -8.4931399603e+02 8.4931399603e+02 0.0000000000e+00 0.0000e+00 1.0000e+00
       25  2    1    2    0    0 +0.0000000000e+00 +0.0000000000e+00 -8.4471469587e+02 8.5391329619e+02 1.2500000000e+02 0.0000e+00 0.0000e+00
      -15  1    3    3    0    0 -3.7644088691e+01 +1.1283112159e+01 -2.7829389637e+02 2.8106055668e+02 1.7770000000e+00 0.0000e+00 -1.0000e+00
       15  1    3    3    0    0 -3.6428507276e+00 -3.6802140256e+01 -2.5388516453e+02 2.5657065768e+02 1.7770000000e+00 0.0000e+00 -1.0000e+00
       22  1    3    3    0    0 +4.1286939418e+01 +2.5519028097e+01 -3.1253563521e+02 3.1628208206e+02 0.0000000000e+00 0.0000e+00 -1.0000e+00
<mgrwt>
<rscale>  2 0.12500000E+03</rscale>
<asrwt>0</asrwt>
<pdfrwt beam="1">  1       21 0.67636819E-03 0.12500000E+03</pdfrwt>
<pdfrwt beam="2">  1       21 0.12489902E+00 0.12500000E+03</pdfrwt>
<totfact> 0.26122187E+06</totfact>
</mgrwt>
</event>
<event>
 6      0 +1.3698540e+00 1.25000000e+02 7.54677100e-03 1.12640300e-01
       21 -1    0    0  502  501 +0.0000000000e+00 +0.0000000000e+00 +2.5097810267e+01 2.5097810267e+01 0.0000000000e+00 0.0000e+00 1.0000e+00
       21 -1    0    0  501  502 -0.0000000000e+00 -0.0000000000e+00 -1.5564106822e+02 1.5564106822e+02 0.0000000000e+00 0.0000e+00 1.0000e+00
       25  2    1    2    0    0 +0.0000000000e+00 +0.0000000000e+00 -1.3054325796e+02 1.8073887849e+02 1.2500000000e+02 0.0000e+00 0.0000e+00
      -15  1    3    3    0    0 -2.4127786787e+01 +2.0277971827e+01 +6.7631129189e+00 3.2283798754e+01 1.7770000000e+00 0.0000e+00 -1.0000e+00
       15  1    3    3    0    0 +9.1546049585e-01 +1.1422231884e+01 -1.0298446520e+01 1.5508745238e+01 1.7770000000e+00 0.0000e+00 -1.0000e+00
       22  1    3    3    0    0 +2.3212326291e+01 -3.1700203710e+01 -1.2700792436e+02 1.3294633451e+02 0.0000000000e+00 0.0000e+00 -1.0000e+00
<mgrwt>
<rscale>  2 0.12500000E+03</rscale>
<asrwt>0</asrwt>
<pdfrwt beam="1">  1       21 0.36908544E-02 0.12500000E+03</pdfrwt>
<pdfrwt beam="2">  1       21 0.22888393E-01 0.12500000E+03</pdfrwt>
<totfact> 0.79693430E+06</totfact>
</mgrwt>
</event>
<event>
 6      0 +1.3698540e+00 1.25000000e+02 7.54677100e-03 1.12640300e-01
       21 -1    0    0  502  501 +0.0000000000e+00 +0.0000000000e+00 +3.2514535300e+02 3.2514535300e+02 0.0000000000e+00 0.0000e+00 -1.0000e+00
       21 -1    0    0  501  502 -0.0000000000e+00 -0.0000000000e+00 -1.2013857691e+01 1.2013857691e+01 0.0000000000e+00 0.0000e+00 -1.0000e+00
       25  2    1    2    0    0 +0.0000000000e+00 +0.0000000000e+00 +3.1313149531e+02 3.3715921070e+02 1.2500000000e+02 0.0000e+00 0.0000e+00
      -15  1    3    3    0    0 +2.3312010814e+01 -5.3816091519e+01 +2.1463365293e+02 2.2250929027e+02 1.7770000000e+00 0.0000e+00 1.0000e+00
       15  1    3    3    0    0 -2.3312010819e+01 +5.3816091582e+01 +9.8497842096e+01 1.1464992014e+02 1.7770000000e+00 0.0000e+00 1.0000e+00
       22  1    3    3    0    0 +5.5589373597e-09 -6.3677968986e-08 +2.3150267237e-07 2.4016509495e-07 0.0000000000e+00 0.0000e+00 -1.0000e+00
<mgrwt>
<rscale>  2 0.12500000E+03</rscale>
<asrwt>0</asrwt>
<pdfrwt beam="1">  1       21 0.47815487E-01 0.12500000E+03</pdfrwt>
<pdfrwt beam="2">  1       21 0.17667440E-02 0.12500000E+03</pdfrwt>
<totfact> 0.59862910E+06</totfact>
</mgrwt>
</event>
<event>
 6      0 +1.3698540e+00 1.25000000e+02 7.54677100e-03 1.12640300e-01
       21 -1    0    0  502  501 +0.0000000000e+00 +0.0000000000e+00 +2.9445117809e+01 2.9445117809e+01 0.0000000000e+00 0.0000e+00 1.0000e+00
       21 -1    0    0  501  502 -0.0000000000e+00 -0.0000000000e+00 -1.3266206049e+02 1.3266206049e+02 0.0000000000e+00 0.0000e+00 1.0000e+00
       25  2    1    2    0    0 +0.0000000000e+00 +0.0000000000e+00 -1.0321694268e+02 1.6210717830e+02 1.2500000000e+02 0.0000e+00 0.0000e+00
      -15  1    3    3    0    0 +2.1921813494e+00 +2.2174348401e+01 +2.3493561386e+01 3.2428576004e+01 1.7770000000e+00 0.0000e+00 1.0000e+00
       15  1    3    3    0    0 -2.1928750530e+00 -2.2509032611e+01 -1.2713215736e+02 1.2914026643e+02 1.7770000000e+00 0.0000e+00 1.0000e+00
       22  1    3    3    0    0 +6.9370365085e-04 +3.3468420940e-01 +4.2165329426e-01 5.3833586334e-01 0.0000000000e+00 0.0000e+00 1.0000e+00
<mgrwt>
<rscale>  2 0.12500000E+03</rscale>
<asrwt>0</asrwt>
<pdfrwt beam="1">  1       21 0.43301644E-02 0.12500000E+03</pdfrwt>
<pdfrwt beam="2">  1       21 0.19509126E-01 0.12500000E+03</pdfrwt>
<totfact> 0.82635870E+06</totfact>
</mgrwt>
</event>
<event>
 6      0 +1.3698540e+00 1.25000000e+02 7.54677100e-03 1.12640300e-01
       21 -1    0    0  502  501 +0.0000000000e+00 +0.0000000000e+00 +3.7350921261e+01 3.7350921261e+01 0.0000000000e+00 0.0000e+00 1.0000e+00
       21 -1    0    0  501  502 -0.0000000000e+00 -0.0000000000e+00 -1.0458242710e+02 1.0458242710e+02 0.0000000000e+00 0.0000e+00 1.0000e+00
       25  2    1    2    0    0 +0.0000000000e+00 +0.0000000000e+00 -6.7231505844e+01 1.4193334836e+02 1.2500000000e+02 0.0000e+00 0.0000e+00
      -15  1    3    3    0    0 -3.6239690163e+01 +5.0541306524e+01 -4.0367078648e+01 7.4164665278e+01 1.7770000000e+00 0.0000e+00 1.0000e+00
       15  1    3    3    0    0 +3.6239691115e+01 -5.0541307917e+01 -2.6864426226e+01 6.7768681141e+01 1.7770000000e+00 0.0000e+00 1.0000e+00
       22  1    3    3    0    0 -9.5213370373e-07 +1.3923719435e-06 -9.7254607099e-07 1.9470757764e-06 0.0000000000e+00 0.0000e+00 1.0000e+00
<mgrwt>
<rscale>  2 0.12500000E+03</rscale>
<asrwt>0</asrwt>
<pdfrwt beam="1">  1       21 0.54927827E-02 0.12500000E+03</pdfrwt>
<pdfrwt beam="2">  1       21 0.15379768E-01 0.12500000E+03</pdfrwt>
<totfact> 0.86005423E+06</totfact>
</mgrwt>
</event>
<event>
 6      0 +1.3698540e+00 1.25000000e+02 7.54677100e-03 1.12640300e-01
       21 -1    0    0  502  501 +0.0000000000e+00 +0.0000000000e+00 +5.8377463537e+00 5.8377463537e+00 0.0000000000e+00 0.0000e+00 1.0000e+00
       21 -1    0    0  501  502 -0.0000000000e+00 -0.0000000000e+00 -6.6913664338e+02 6.6913664338e+02 0.0000000000e+00 0.0000e+00 1.0000e+00
       25  2    1    2    0    0 +0.0000000000e+00 +0.0000000000e+00 -6.6329889703e+02 6.7497438973e+02 1.2500000000e+02 0.0000e+00 0.0000e+00
      -15  1    3    3    0    0 -6.2679191402e+00 +5.5024589400e+00 -6.3943145772e+01 6.4509282162e+01 1.7770000000e+00 0.0000e+00 -1.0000e+00
       15  1    3    3    0    0 -1.4857436997e+01 +4.3943373039e+01 -4.3652155669e+02 4.3898290474e+02 1.7770000000e+00 0.0000e+00 -1.0000e+00
       22  1    3    3    0    0 +2.1125356137e+01 -4.9445831979e+01 -1.6283419477e+02 1.7148220304e+02 0.0000000000e+00 0.0000e+00 -1.0000e+00
<mgrwt>
<rscale>  2 0.12500000E+03</rscale>
<asrwt>0</asrwt>
<pdfrwt beam="1">  1       21 0.85849191E-03 0.12500000E+03</pdfrwt>
<pdfrwt beam="2">  1       21 0.98402470E-01 0.12500000E+03</pdfrwt>
<totfact> 0.34212171E+06</totfact>
</mgrwt>
</event>
<event>
 6      0 +1.3698540e+00 1.25000000e+02 7.54677100e-03 1.12640300e-01
       21 -1    0    0  502  501 +0.0000000000e+00 +0.0000000000e+00 +3.7875380346e+02 3.7875380346e+02 0.0000000000e+00 0.0000e+00 -1.0000e+00
       21 -1    0    0  501  502 -0.0000000000e+00 -0.0000000000e+00 -1.0313427784e+01 1.0313427784e+01 0.0000000000e+00 0.0000e+00 -1.0000e+00
       25  2    1    2    0    0 +0.0000000000e+00 +0.0000000000e+00 +3.6844037568e+02 3.8906723125e+02 1.2500000000e+02 0.0000e+00 0.0000e+00
      -15  1    3    3    0    0 -6.1664884553e+00 -1.0268552307e+01 +8.1968380688e+00 1.4622401638e+01 1.7770000000e+00 0.0000e+00 -1.0000e+00
       15  1    3    3    0    0 -1.2743270130e+01 -2.8604731412e+01 +2.9188021018e+02 2.9356061796e+02 1.7770000000e+00 0.0000e+00 -1.0000e+00
       22  1    3    3    0    0 +1.8909758585e+01 +3.8873283718e+01 +6.8363327417e+01 8.0884211638e+01 0.0000000000e+00 0.0000e+00 -1.0000e+00
<mgrwt>
<rscale>  2 0.12500000E+03</rscale>
<asrwt>0</asrwt>
<pdfrwt beam="1">  1       21 0.55699080E-01 0.12500000E+03</pdfrwt>
<pdfrwt beam="2">  1       21 0.15166808E-02 0.12500000E+03</pdfrwt>
<totfact> 0.54678004E+06</totfact>
</mgrwt>
</event>
<event>
 6      0 +1.3698540e+00 1.25000000e+02 7.54677100e-03 1.12640300e-01
       21 -1    0    0  502  501 +0.0000000000e+00 +0.0000000000e+00 +4.1151785824e+01 4.1151785824e+01 0.0000000000e+00 0.0000e+00 1.0000e+00
       21 -1    0    0  501  502 -0.0000000000e+00 -0.0000000000e+00 -9.4922976531e+01 9.4922976531e+01 0.0000000000e+00 0.0000e+00 1.0000e+00
       25  2    1    2    0    0 +0.0000000000e+00 +0.0000000000e+00 -5.3771190707e+01 1.3607476236e+02 1.2500000000e+02 0.0000e+00 0.0000e+00
      -15  1    3    3    0    0 +9.2426564092e+00 +1.6262377927e+01 -7.4434367763e+00 2.0210247731e+01 1.7770000000e+00 0.0000e+00 -1.0000e+00
       15  1    3    3    0    0 -1.9841830261e+01 -4.8635820617e+00 -7.7959053836e+01 8.0610945054e+01 1.7770000000e+00 0.0000e+00 -1.0000e+00
       22  1    3    3    0    0 +1.0599173852e+01 -1.1398795865e+01 +3.1631299907e+01 3.5253569569e+01 0.0000000000e+00 0.0000e+00 -1.0000e+00
<mgrwt>
<rscale>  2 0.12500000E+03</rscale>
<asrwt>0</asrwt>
<pdfrwt beam="1">  1       21 0.60517334E-02 0.12500000E+03</pdfrwt>
<pdfrwt beam="2">  1       21 0.13959261E-01 0.12500000E+03</pdfrwt>
<totfact> 0.87018492E+06</totfact>
</mgrwt>
</event>
<event>
 6      0 +1.3698540e+00 1.25000000e+02 7.54677100e-03 1.12640300e-01
       21 -1    0    0  502  501 +0.0000000000e+00 +0.0000000000e+00 +4.9620273333e+02 4.9620273333e+02 0.0000000000e+00 0.0000e+00 -1.0000e+00
       21 -1    0    0  501  502 -0.0000000000e+00 -0.0000000000e+00 -7.8722863410e+00 7.8722863410e+00 0.0000000000e+00 0.0000e+00 -1.0000e+00
       25  2    1    2    0    0 +0.0000000000e+00 +0.0000000000e+00 +4.8833044699e+02 5.0407501968e+02 1.2500000000e+02 0.0000e+00 0.0000e+00
      -15  1    3    3    0    0 -2.7734852329e+01 +3.3093773959e+01 +1.2225734260e+02 1.2967048800e+02 1.7770000000e+00 0.0000e+00 -1.0000e+00
       15  1    3    3    0    0 +4.7705888520e+01 -1.2110678178e+01 +2.1365981904e+02 2.1926284757e+02 1.7770000000e+00 0.0000e+00 -1.0000e+00
       22  1    3    3    0    0 -1.9971036191e+01 -2.0983095781e+01 +1.5241328523e+02 1.5514168398e+02 0.0000000000e+00 0.0000e+00 -1.0000e+00
<mgrwt>
<rscale>  2 0.12500000E+03</rscale>
<asrwt>0</asrwt>
<pdfrwt beam="1">  1       21 0.72970969E-01 0.12500000E+03</pdfrwt>
<pdfrwt beam="2">  1       21 0.11576895E-02 0.12500000E+03</pdfrwt>
<totfact> 0.45024184E+06</totfact>
</mgrwt>
</event>
<event>
 6      0 +1.3698540e+00 1.25000000e+02 7.54677100e-03 1.12640300e-01
       21 -1    0    0  502  501 +0.0000000000e+00 +0.0000000000e+00 +5.3955504138e+01 5.3955504138e+01 0.0000000000e+00 0.0000e+00 -1.0000e+00
       21 -1    0    0  501  502 -0.0000000000e+00 -0.0000000000e+00 -7.2397618415e+01 7.2397618415e+01 0.0000000000e+00 0.0000e+00 -1.0000e+00
       25  2    1    2    0    0 +0.0000000000e+00 +0.0000000000e+00 -1.8442114277e+01 1.2635312255e+02 1.2500000000e+02 0.0000e+00 0.0000e+00
      -15  1    3    3    0    0 -1.9176778567e+01 +1.9169986418e+01 +4.7669758685e+01 5.4870764871e+01 1.7770000000e+00 0.0000e+00 1.0000e+00
       15  1    3    3    0    0 +1.9028936613e+01 -1.8940059054e+01 -6.5550357466e+01 7.0857839075e+01 1.7770000000e+00 0.0000e+00 1.0000e+00
       22  1    3    3    0    0 +1.4784195369e-01 -2.2992736406e-01 -5.6151549721e-01 6.2451860630e-01 0.0000000000e+00 0.0000e+00 1.0000e+00
<mgrwt>
<rscale>  2 0.12500000E+03</rscale>
<asrwt>0</asrwt>
<pdfrwt beam="1">  1       21 0.79346330E-02 0.12500000E+03</pdfrwt>
<pdfrwt beam="2">  1       21 0.10646709E-01 0.12500000E+03</pdfrwt>
<totfact> 0.88748298E+06</totfact>
</mgrwt>
</event>
<event>
 6      0 +1.3698540e+00 1.25000000e+02 7.54677100e-03 1.12640300e-01
       21 -1    0    0  502  501 +0.0000000000e+00 +0.0000000000e+00 +1.7237736475e+02 1.7237736475e+02 0.0000000000e+00 0.0000e+00 -1.0000e+00
       21 -1    0    0  501  502 -0.0000000000e+00 -0.0000000000e+00 -2.2661037925e+01 2.2661037925e+01 0.0000000000e+00 0.0000e+00 -1.0000e+00
       25  2    1    2    0    0 +0.0000000000e+00 +0.0000000000e+00 +1.4971632682e+02 1.9503840267e+02 1.2500000000e+02 0.0000e+00 0.0000e+00
      -15  1    3    3    0    0 +4.5052055397e+01 -4.2987151213e+01 +7.6153566427e+01 9.8387531087e+01 1.7770000000e+00 0.0000e+00 -1.0000e+00
       15  1    3    3    0    0 -3.2715657338e+01 +3.5254153300e+01 +5.6242870554e+01 7.4024237768e+01 1.7770000000e+00 0.0000e+00 -1.0000e+00
       22  1    3    3    0    0 -1.2336398060e+01 +7.7329979128e+00 +1.7319889841e+01 2.2626633818e+01 0.0000000000e+00 0.0000e+00 1.0000e+00
<mgrwt>
<rscale>  2 0.12500000E+03</rscale>
<asrwt>0</asrwt>
<pdfrwt beam="1">  1       21 0.25349612E-01 0.12500000E+03</pdfrwt>
<pdfrwt beam="2">  1       21 0.33325057E-02 0.12500000E+03</pdfrwt>
<totfact> 0.77548904E+06</totfact>
</mgrwt>
</event>
<event>
 6      0 +1.3698540e+00 1.25000000e+02 7.54677100e-03 1.12640300e-01
       21 -1    0    0  502  501 +0.0000000000e+00 +0.0000000000e+00 +1.7389505421e+01 1.7389505421e+01 0.0000000000e+00 0.0000e+00 -1.0000e+00
       21 -1    0    0  501  502 -0.0000000000e+00 -0.0000000000e+00 -2.2463261062e+02 2.2463261062e+02 0.0000000000e+00 0.0000e+00 -1.0000e+00
       25  2    1    2    0    0 +0.0000000000e+00 +0.0000000000e+00 -2.0724310520e+02 2.4202211604e+02 1.2500000000e+02 0.0000e+00 0.0000e+00
      -15  1    3    3    0    0 +5.3111893016e+00 +4.5347911257e+01 -6.4611688300e+01 7.9135768027e+01 1.7770000000e+00 0.0000e+00 -1.0000e+00
       15  1    3    3    0    0 +2.6275710283e+01 -2.2451882729e+01 -3.8924293170e+01 5.2084146501e+01 1.7770000000e+00 0.0000e+00 -1.0000e+00
       22  1    3    3    0    0 -3.1586899585e+01 -2.2896028528e+01 -1.0370712373e+02 1.1080220152e+02 0.0000000000e+00 0.0000e+00 -1.0000e+00
<mgrwt>
<rscale>  2 0.12500000E+03</rscale>
<asrwt>0</asrwt>
<pdfrwt beam="1">  1       21 0.25572802E-02 0.12500000E+03</pdfrwt>
<pdfrwt beam="2">  1       21 0.33034207E-01 0.12500000E+03</pdfrwt>
<totfact> 0.71040114E+06</totfact>
</mgrwt>
</event>
<event>
 6      0 +1.3698540e+00 1.25000000e+02 7.54677100e-03 1.12640300e-01
       21 -1    0    0  502  501 +0.0000000000e+00 +0.0000000000e+00 +2.3747365464e+01 2.3747365464e+01 0.0000000000e+00 0.0000e+00 -1.0000e+00
       21 -1    0    0  501  502 -0.0000000000e+00 -0.0000000000e+00 -1.6449193095e+02 1.6449193095e+02 0.0000000000e+00 0.0000e+00 -1.0000e+00
       25  2    1    2    0    0 +0.0000000000e+00 +0.0000000000e+00 -1.4074456548e+02 1.8823929641e+02 1.2500000000e+02 0.0000e+00 0.0000e+00
      -15  1    3    3    0    0 +1.0927925227e+01 -3.0756586286e+01 -2.3884078301e+01 4.0484491784e+01 1.7770000000e+00 0.0000e+00 -1.0000e+00
       15  1    3    3    0    0 -4.2600976424e-01 -2.7250230064e+01 -1.8185261835e+01 3.2811857611e+01 1.7770000000e+00 0.0000e+00 -1.0000e+00
       22  1    3    3    0    0 -1.0501915463e+01 +5.8006816350e+01 -9.8675225340e+01 1.1494294701e+02 0.0000000000e+00 0.0000e+00 -1.0000e+00
<mgrwt>
<rscale>  2 0.12500000E+03</rscale>
<asrwt>0</asrwt>
<pdfrwt beam="1">  1       21 0.34922595E-02 0.12500000E+03</pdfrwt>
<pdfrwt beam="2">  1       21 0.24189991E-01 0.12500000E+03</pdfrwt>
<totfact> 0.78560743E+06</totfact>
</mgrwt>
</event>
<event>
 6      0 +1.3698540e+00 1.25000000e+02 7.54677100e-03 1.12640300e-01
       21 -1    0    0  502  501 +0.0000000000e+00 +0.0000000000e+00 +1.1456171260e+01 1.1456171260e+01 0.0000000000e+00 0.0000e+00 1.0000e+00
       21 -1    0    0  501  502 -0.0000000000e+00 -0.0000000000e+00 -3.4097342920e+02 3.4097342920e+02 0.0000000000e+00 0.0000e+00 1.0000e+00
       25  2    1    2    0    0 +0.0000000000e+00 +0.0000000000e+00 -3.2951725794e+02 3.5242960046e+02 1.2500000000e+02 0.0000e+00 0.0000e+00
      -15  1    3    3    0    0 -2.7588781490e+00 +2.1883857581e+00 -2.1887103149e+00 4.5109447691e+00 1.7770000000e+00 0.0000e+00 -1.0000e+00
       15  1    3    3    0    0 +3.2794338380e+00 -2.8084059666e+01 -1.0780097004e+01 3.0312329406e+01 1.7770000000e+00 0.0000e+00 -1.0000e+00
       22  1    3    3    0    0 -5.2055568901e-01 +2.5895673908e+01 -3.1654845062e+02 3.1760632628e+02 0.0000000000e+00 0.0000e+00 -1.0000e+00
<mgrwt>
<rscale>  2 0.12500000E+03</rscale>
<asrwt>0</asrwt>
<pdfrwt beam="1">  1       21 0.16847309E-02 0.12500000E+03</pdfrwt>
<pdfrwt beam="2">  1       21 0.50143156E-01 0.12500000E+03</pdfrwt>
<totfact> 0.58280666E+06</totfact>
</mgrwt>
</event>
<event>
 6      0 +1.3698540e+00 1.25000000e+02 7.54677100e-03 1.12640300e-01
       21 -1    0    0  502  501 +0.0000000000e+00 +0.0000000000e+00 +1.7594381655e+02 1.7594381655e+02 0.0000000000e+00 0.0000e+00 1.0000e+00
       21 -1    0    0  501  502 -0.0000000000e+00 -0.0000000000e+00 -2.2201689589e+01 2.2201689589e+01 0.0000000000e+00 0.0000e+00 1.0000e+00
       25  2    1    2    0    0 +0.0000000000e+00 +0.0000000000e+00 +1.5374212696e+02 1.9814550613e+02 1.2500000000e+02 0.0000e+00 0.0000e+00
      -15  1    3    3    0    0 -1.4845729291e+01 -9.2503510340e+00 -1.8200828323e+01 2.5305978604e+01 1.7770000000e+00 0.0000e+00 -1.0000e+00
       15  1    3    3    0    0 +1.4845729246e+01 +9.2503510267e+00 +1.7194295523e+02 1.7283952746e+02 1.7770000000e+00 0.0000e+00 -1.0000e+00
       22  1    3    3    0    0 +4.5330421776e-08 +7.3325817292e-09 +6.4610386952e-08 7.9266108743e-08 0.0000000000e+00 0.0000e+00 -1.0000e+00
<mgrwt>
<rscale>  2 0.12500000E+03</rscale>
<asrwt>0</asrwt>
<pdfrwt beam="1">  1       21 0.25874090E-01 0.12500000E+03</pdfrwt>
<pdfrwt beam="2">  1       21 0.32649544E-02 0.12500000E+03</pdfrwt>
<totfact> 0.77090388E+06</totfact>
</mgrwt>
</event>
<event>
 6      0 +1.3698540e+00 1.25000000e+02 7.54677100e-03 1.12640300e-01
       21 -1    0    0  502  501 +0.0000000000e+00 +0.0000000000e+00 +4.3880825373e+02 4.3880825373e+02 0.0000000000e+00 0.0000e+00 1.0000e+00
       21 -1    0    0  501  502 -0.0000000000e+00 -0.0000000000e+00 -8.9019519729e+00 8.9019519729e+00 0.0000000000e+00 0.0000e+00 1.0000e+00
       25  2    1    2    0    0 +0.0000000000e+00 +0.0000000000e+00 +4.2990630175e+02 4.4771020570e+02 1.2500000000e+02 0.0000e+00 0.0000e+00
      -15  1    3    3    0    0 +7.3301232452e-01 +2.1454963610e+00 -5.1158655611e+00 5.8711388309e+00 1.7770000000e+00 0.0000e+00 -1.0000e+00
       15  1    3    3    0    0 -3.1625172044e+01 +5.0700751594e+00 +9.3560913283e+01 9.8907327293e+01 1.7770000000e+00 0.0000e+00 -1.0000e+00
       22  1    3    3    0    0 +3.0892159720e+01 -7.2155715203e+00 +3.4146125398e+02 3.4293173952e+02 0.0000000000e+00 0.0000e+00 -1.0000e+00
<mgrwt>
<rscale>  2 0.12500000E+03</rscale>
<asrwt>0</asrwt>
<pdfrwt beam="1">  1       21 0.64530611E-01 0.12500000E+03</pdfrwt>
<pdfrwt beam="2">  1       21 0.13091109E-02 0.12500000E+03</pdfrwt>
<totfact> 0.49466371E+06</totfact>
</mgrwt>
</event>
<event>
 6      0 +1.3698540e+00 1.25000000e+02 7.54677100e-03 1.12640300e-01
       21 -1    0    0  502  501 +0.0000000000e+00 +0.0000000000e+00 +3.3828940532e+00 3.3828940532e+00 0.0000000000e+00 0.0000e+00 1.0000e+00
       21 -1    0    0  501  502 -0.0000000000e+00 -0.0000000000e+00 -1.1547065733e+03 1.1547065733e+03 0.0000000000e+00 0.0000e+00 1.0000e+00
       25  2    1    2    0    0 +0.0000000000e+00 +0.0000000000e+00 -1.1513236793e+03 1.1580894674e+03 1.2500000000e+02 0.0000e+00 0.0000e+00
      -15  1    3    3    0    0 +1.6640898243e+01 +2.1169309782e+01 -2.6499282308e+02 2.6636331051e+02 1.7770000000e+00 0.0000e+00 -1.0000e+00
       15  1    3    3    0    0 -4.6966633988e+01 +1.2934854237e+01 -5.7578191050e+02 5.7784179613e+02 1.7770000000e+00 0.0000e+00 -1.0000e+00
       22  1    3    3    0    0 +3.0325735745e+01 -3.4104164019e+01 -3.1054894623e+02 3.1388436128e+02 0.0000000000e+00 0.0000e+00 -1.0000e+00
<mgrwt>
<rscale>  2 0.12500000E+03</rscale>
<asrwt>0</asrwt>
<pdfrwt beam="1">  1       21 0.49748468E-03 0.12500000E+03</pdfrwt>
<pdfrwt beam="2">  1       21 0.16980970E+00 0.12500000E+03</pdfrwt>
<totfact> 0.16981467E+06</totfact>
</mgrwt>
</event>
<event>
 6      0 +1.3698540e+00 1.25000000e+02 7.54677100e-03 1.12640300e-01
       21 -1    0    0  502  501 +0.0000000000e+00 +0.0000000000e+00 +8.7292327534e+00 8.7292327534e+00 0.0000000000e+00 0.0000e+00 1.0000e+00
       21 -1    0    0  501  502 -0.0000000000e+00 -0.0000000000e+00 -4.4749064555e+02 4.4749064555e+02 0.0000000000e+00 0.0000e+00 1.0000e+00
       25  2    1    2    0    0 +0.0000000000e+00 +0.0000000000e+00 -4.3876141280e+02 4.5621987830e+02 1.2500000000e+02 0.0000e+00 0.0000e+00
      -15  1    3    3    0    0 -2.6718814942e-01 -5.3526347542e+01 -1.4976410261e+02 1.5905214689e+02 1.7770000000e+00 0.0000e+00 -1.0000e+00
       15  1    3    3    0    0 +1.5742623039e+01 +4.9609774665e+01 -2.4177626398e+02 2.4732140925e+02 1.7770000000e+00 0.0000e+00 -1.0000e+00
       22  1    3    3    0    0 -1.5475434889e+01 +3.9165728766e+00 -4.7221046296e+01 4.9846322246e+01 0.0000000000e+00 0.0000e+00 -1.0000e+00
<mgrwt>
<rscale>  2 0.12500000E+03</rscale>
<asrwt>0</asrwt>
<pdfrwt beam="1">  1       21 0.12837106E-02 0.12500000E+03</pdfrwt>
<pdfrwt beam="2">  1       21 0.65807455E-01 0.12500000E+03</pdfrwt>
<totfact> 0.48761420E+06</totfact>
</mgrwt>
</event>
<event>
 6      0 +1.3698540e+00 1.25000000e+02 7.54677100e-03 1.12640300e-01
       21 -1    0    0  502  501 +0.0000000000e+00 +0.0000000000e+00 +2.3065330041e+02 2.3065330041e+02 0.0000000000e+00 0.0000e+00 1.0000e+00
       21 -1    0    0  501  502 -0.0000000000e+00 -0.0000000000e+00 -1.6935591180e+01 1.6935591180e+01 0.0000000000e+00 0.0000e+00 1.0000e+00
       25  2    1    2    0    0 +0.0000000000e+00 +0.0000000000e+00 +2.1371770923e+02 2.4758889159e+02 1.2500000000e+02 0.0000e+00 0.0000e+00
      -15  1    3    3    0    0 +1.4584648307e+01 -3.9457310130e+01 +6.4455524409e+01 7.6988724140e+01 1.7770000000e+00 0.0000e+00 -1.0000e+00
       15  1    3    3    0    0 +7.0733542140e-01 -1.2344567170e+01 +6.8555080947e-01 1.2510650300e+01 1.7770000000e+00 0.0000e+00 -1.0000e+00
       22  1    3    3    0    0 -1.5291983728e+01 +5.1801877301e+01 +1.4857663401e+02 1.5808951715e+02 0.0000000000e+00 0.0000e+00 -1.0000e+00
<mgrwt>
<rscale>  2 0.12500000E+03</rscale>
<asrwt>0</asrwt>
<pdfrwt beam="1">  1       21 0.33919601E-01 0.12500000E+03</pdfrwt>
<pdfrwt beam="2">  1       21 0.24905283E-02 0.12500000E+03</pdfrwt>
<totfact> 0.70314128E+06</totfact>
</mgrwt>
</event>
<event>
 6      0 +1.3698540e+00 1.25000000e+02 7.54677100e-03 1.12640300e-01
       21 -1    0    0  502  501 +0.0000000000e+00 +0.0000000000e+00 +4.9262670062e+00 4.9262670062e+00 0.0000000000e+00 0.0000e+00 -1.0000e+00
       21 -1    0    0  501  502 -0.0000000000e+00 -0.0000000000e+00 -7.9294321544e+02 7.9294321544e+02 0.0000000000e+00 0.0000e+00 -1.0000e+00
       25  2    1    2    0    0 +0.0000000000e+00 +0.0000000000e+00 -7.8801694843e+02 7.9786948244e+02 1.2500000000e+02 0.0000e+00 0.0000e+00
      -15  1    3    3    0    0 +3.0561334898e+01 +1.0331878005e+01 -1.1046886781e+02 1.1509679135e+02 1.7770000000e+00 0.0000e+00 -1.0000e+00
       15  1    3    3    0    0 -4.0476973402e+00 +3.2784718309e+01 -3.0878738227e+02 3.1055438620e+02 1.7770000000e+00 0.0000e+00 -1.0000e+00
       22  1    3    3    0    0 -2.6513637558e+01 -4.3116596315e+01 -3.6876069844e+02 3.7221830499e+02 0.0000000000e+00 0.0000e+00 -1.0000e+00
<mgrwt>
<rscale>  2 0.12500000E+03</rscale>
<asrwt>0</asrwt>
<pdfrwt beam="1">  1       21 0.72445121E-03 0.12500000E+03</pdfrwt>
<pdfrwt beam="2">  1       21 0.11660927E+00 0.12500000E+03</pdfrwt>
<totfact> 0.28374488E+06</totfact>
</mgrwt>
</event>
<event>
 6      0 +1.3698540e+00 1.25000000e+02 7.54677100e-03 1.12640300e-01
       21 -1    0    0  502  501 +0.0000000000e+00 +0.0000000000e+00 +9.6268940596e+01 9.6268940596e+01 0.0000000000e+00 0.0000e+00 1.0000e+00
       21 -1    0    0  501  502 -0.0000000000e+00 -0.0000000000e+00 -4.0576430735e+01 4.0576430735e+01 0.0000000000e+00 0.0000e+00 1.0000e+00
       25  2    1    2    0    0 +0.0000000000e+00 +0.0000000000e+00 +5.5692509861e+01 1.3684537133e+02 1.2500000000e+02 0.0000e+00 0.0000e+00
      -15  1    3    3    0    0 -4.0013194026e+01 +8.2362449099e+00 +7.9592781326e+01 8.9482176966e+01 1.7770000000e+00 0.0000e+00 1.0000e+00
       15  1    3    3    0    0 +4.0013194202e+01 -8.2362450533e+00 -2.3900271610e+01 4.7363194096e+01 1.7770000000e+00 0.0000e+00 1.0000e+00
       22  1    3    3    0    0 -1.7574146537e-07 +1.4345837722e-07 +1.4586730146e-07 2.6970843198e-07 0.0000000000e+00 0.0000e+00 -1.0000e+00
<mgrwt>
<rscale>  2 0.12500000E+03</rscale>
<asrwt>0</asrwt>
<pdfrwt beam="1">  1       21 0.14157197E-01 0.12500000E+03</pdfrwt>
<pdfrwt beam="2">  1       21 0.59671221E-02 0.12500000E+03</pdfrwt>
<totfact> 0.86884780E+06</totfact>
</mgrwt>
</event>
<event>
 6      0 +1.3698540e+00 1.25000000e+02 7.54677100e-03 1.12640300e-01
       21 -1    0    0  502  501 +0.0000000000e+00 +0.0000000000e+00 +1.6980009094e+01 1.6980009094e+01 0.0000000000e+00 0.0000e+00 -1.0000e+00
       21 -1    0    0  501  502 -0.0000000000e+00 -0.0000000000e+00 -2.3004993569e+02 2.3004993569e+02 0.0000000000e+00 0.0000e+00 -1.0000e+00
       25  2    1    2    0    0 +0.0000000000e+00 +0.0000000000e+00 -2.1306992659e+02 2.4702994478e+02 1.2500000000e+02 0.0000e+00 0.0000e+00
      -15  1    3    3    0    0 -4.3014788776e+01 +2.3653924966e+01 -1.8290357105e+02 1.8938493671e+02 1.7770000000e+00 0.0000e+00 1.0000e+00
       15  1    3    3    0    0 +4.3014788764e+01 -2.3653924963e+01 -3.0166355527e+01 5.7645008053e+01 1.7770000000e+00 0.0000e+00 1.0000e+00
       22  1    3    3    0    0 +1.1675128247e-08 -2.2539503526e-09 -7.1214953379e-09 1.3860180649e-08 0.0000000000e+00 0.0000e+00 1.0000e+00
<mgrwt>
<rscale>  2 0.12500000E+03</rscale>
<asrwt>0</asrwt>
<pdfrwt beam="1">  1       21 0.24970602E-02 0.12500000E+03</pdfrwt>
<pdfrwt beam="2">  1       21 0.33830872E-01 0.12500000E+03</pdfrwt>
<totfact> 0.70386513E+06</totfact>
</mgrwt>
</event>
<event>
 6      0 +1.3698540e+00 1.25000000e+02 7.54677100e-03 1.12640300e-01
       21 -1    0    0  502  501 +0.0000000000e+00 +0.0000000000e+00 +3.0281599216e+01 3.0281599216e+01 0.0000000000e+00 0.0000e+00 1.0000e+00
       21 -1    0    0  501  502 -0.0000000000e+00 -0.0000000000e+00 -1.2899748036e+02 1.2899748036e+02 0.0000000000e+00 0.0000e+00 1.0000e+00
       25  2    1    2    0    0 +0.0000000000e+00 +0.0000000000e+00 -9.8715881141e+01 1.5927907957e+02 1.2500000000e+02 0.0000e+00 0.0000e+00
      -15  1    3    3    0    0 -2.4609483258e+01 +4.5729857564e+01 -9.2789207385e+01 1.0634773752e+02 1.7770000000e+00 0.0000e+00 -1.0000e+00
       15  1    3    3    0    0 +2.4560607786e+01 -4.5969601664e+01 -5.4991893591e+00 5.2438788550e+01 1.7770000000e+00 0.0000e+00 -1.0000e+00
       22  1    3    3    0    0 +4.8875472363e-02 +2.3974410034e-01 -4.2748439878e-01 4.9255350638e-01 0.0000000000e+00 0.0000e+00 -1.0000e+00
<mgrwt>
<rscale>  2 0.12500000E+03</rscale>
<asrwt>0</asrwt>
<pdfrwt beam="1">  1       21 0.44531762E-02 0.12500000E+03</pdfrwt>
<pdfrwt beam="2">  1       21 0.18970218E-01 0.12500000E+03</pdfrwt>
<totfact> 0.83096077E+06</totfact>
</mgrwt>
</event>
<event>
 6      0 +1.3698540e+00 1.25000000e+02 7.54677100e-03 1.12640300e-01
       21 -1    0    0  502  501 +0.0000000000e+00 +0.0000000000e+00 +6.4862468928e+01 6.4862468928e+01 0.0000000000e+00 0.0000e+00 1.0000e+00
       21 -1    0    0  501  502 -0.0000000000e+00 -0.0000000000e+00 -6.0223578667e+01 6.0223578667e+01 0.0000000000e+00 0.0000e+00 1.0000e+00
       25  2    1    2    0    0 +0.0000000000e+00 +0.0000000000e+00 +4.6388902616e+00 1.2508604759e+02 1.2500000000e+02 0.0000e+00 0.0000e+00
      -15  1    3    3    0    0 -6.5522137255e+00 +2.0093106793e+01 -2.9983807461e+01 3.6726705327e+01 1.7770000000e+00 0.0000e+00 -1.0000e+00
       15  1    3    3    0    0 +1.4543763964e+01 -4.5361631049e+01 +3.9639455790e+00 4.7833766685e+01 1.7770000000e+00 0.0000e+00 -1.0000e+00
       22  1    3    3    0    0 -7.9915502385e+00 +2.5268524257e+01 +3.0658752144e+01 4.0525575583e+01 0.0000000000e+00 0.0000e+00 -1.0000e+00
<mgrwt>
<rscale>  2 0.12500000E+03</rscale>
<asrwt>0</asrwt>
<pdfrwt beam="1">  1       21 0.95385984E-02 0.12500000E+03</pdfrwt>
<pdfrwt beam="2">  1       21 0.88564086E-02 0.12500000E+03</pdfrwt>
<totfact> 0.88984026E+06</totfact>
</mgrwt>
</event>
<event>
 6      0 +1.3698540e+00 1.25000000e+02 7.54677100e-03 1.12640300e-01
       21 -1    0    0  502  501 +0.0000000000e+00 +0.0000000000e+00 +1.9840517902e+02 1.9840517902e+02 0.0000000000e+00 0.0000e+00 1.0000e+00
       21 -1    0    0  501  502 -0.0000000000e+00 -0.0000000000e+00 -1.9688246140e+01 1.9688246140e+01 0.0000000000e+00 0.0000e+00 1.0000e+00
       25  2    1    2    0    0 +0.0000000000e+00 +0.0000000000e+00 +1.7871693288e+02 2.1809342516e+02 1.2500000000e+02 0.0000e+00 0.0000e+00
      -15  1    3    3    0    0 -1.0415776335e+01 -1.1998361437e+01 +1.2550457085e+02 1.2651878954e+02 1.7770000000e+00 0.0000e+00 -1.0000e+00
       15  1    3    3    0    0 +4.0627094503e+01 -3.0774609439e-01 +2.1165196405e+01 4.5845160958e+01 1.7770000000e+00 0.0000e+00 -1.0000e+00
       22  1    3    3    0    0 -3.0211318168e+01 +1.2306107532e+01 +3.2047165624e+01 4.5729474659e+01 0.0000000000e+00 0.0000e+00 -1.0000e+00
<mgrwt>
<rscale>  2 0.12500000E+03</rscale>
<asrwt>0</asrwt>
<pdfrwt beam="1">  1       21 0.29177231E-01 0.12500000E+03</pdfrwt>
<pdfrwt beam="2">  1       21 0.28953304E-02 0.12500000E+03</pdfrwt>
<totfact> 0.74255465E+06</totfact>
</mgrwt>
</event>
<event>
 6      0 +1.3698540e+00 1.25000000e+02 7.54677100e-03 1.12640300e-01
       21 -1    0    0  502  501 +0.0000000000e+00 +0.0000000000e+00 +6.7967295881e+01 6.7967295881e+01 0.0000000000e+00 0.0000e+00 1.0000e+00
       21 -1    0    0  501  502 -0.0000000000e+00 -0.0000000000e+00 -5.7472493930e+01 5.7472493930e+01 0.0000000000e+00 0.0000e+00 1.0000e+00
       25  2    1    2    0    0 +0.0000000000e+00 +0.0000000000e+00 +1.0494801951e+01 1.2543978981e+02 1.2500000000e+02 0.0000e+00 0.0000e+00
      -15  1    3    3    0    0 -1.6836956489e+01 -3.1686432593e+01 -3.5705059666e+01 5.0650983495e+01 1.7770000000e+00 0.0000e+00 -1.0000e+00
       15  1    3    3    0    0 -7.3388848680e+00 -2.7557556675e+00 +2.7662229480e+01 2.8806424443e+01 1.7770000000e+00 0.0000e+00 -1.0000e+00
       22  1    3    3    0    0 +2.4175841357e+01 +3.4442188261e+01 +1.8537632137e+01 4.5982381874e+01 0.0000000000e+00 0.0000e+00 -1.0000e+00
<mgrwt>
<rscale>  2 0.12500000E+03</rscale>
<asrwt>0</asrwt>
<pdfrwt beam="1">  1       21 0.99951906E-02 0.12500000E+03</pdfrwt>
<pdfrwt beam="2">  1       21 0.84518373E-02 0.12500000E+03</pdfrwt>
<totfact> 0.88914723E+06</totfact>
</mgrwt>
</event>
<event>
 6      0 +1.3698540e+00 1.25000000e+02 7.54677100e-03 1.12640300e-01
       21 -1    0    0  502  501 +0.0000000000e+00 +0.0000000000e+00 +1.1950980807e+02 1.1950980807e+02 0.0000000000e+00 0.0000e+00 -1.0000e+00
       21 -1    0    0  501  502 -0.0000000000e+00 -0.0000000000e+00 -3.2685601819e+01 3.2685601819e+01 0.0000000000e+00 0.0000e+00 -1.0000e+00
       25  2    1    2    0    0 +0.0000000000e+00 +0.0000000000e+00 +8.6824206248e+01 1.5219540989e+02 1.2500000000e+02 0.0000e+00 0.0000e+00
      -15  1    3    3    0    0 -1.0558060490e+01 -2.2749852050e+01 -1.0428713462e+00 2.5164930345e+01 1.7770000000e+00 0.0000e+00 -1.0000e+00
       15  1    3    3    0    0 +2.1190285248e+00 -2.7389967466e+01 +6.6322912960e+01 7.1809380391e+01 1.7770000000e+00 0.0000e+00 -1.0000e+00
       22  1    3    3    0    0 +8.4390319647e+00 +5.0139819516e+01 +2.1544164632e+01 5.5221099150e+01 0.0000000000e+00 0.0000e+00 -1.0000e+00
<mgrwt>
<rscale>  2 0.12500000E+03</rscale>
<asrwt>0</asrwt>
<pdfrwt beam="1">  1       21 0.17574972E-01 0.12500000E+03</pdfrwt>
<pdfrwt beam="2">  1       21 0.48067062E-02 0.12500000E+03</pdfrwt>
<totfact> 0.84258945E+06</totfact>
</mgrwt>
</event>
<event>
 6      0 +1.3698540e+00 1.25000000e+02 7.54677100e-03 1.12640300e-01
       21 -1    0    0  502  501 +0.0000000000e+00 +0.0000000000e+00 +2.9873475148e+02 2.9873475148e+02 0.0000000000e+00 0.0000e+00 -1.0000e+00
       21 -1    0    0  501  502 -0.0000000000e+00 -0.0000000000e+00 -1.3075981220e+01 1.3075981220e+01 0.0000000000e+00 0.0000e+00 -1.0000e+00
       25  2    1    2    0    0 +0.0000000000e+00 +0.0000000000e+00 +2.8565877026e+02 3.1181073270e+02 1.2500000000e+02 0.0000e+00 0.0000e+00
      -15  1    3    3    0    0 -2.2249498509e+01 +4.9445257145e+01 +1.0516161559e+02 1.1833003321e+02 1.7770000000e+00 0.0000e+00 -1.0000e+00
       15  1    3    3    0    0 +2.1427584041e+01 -4.8816074700e+01 +1.8308304784e+02 1.9069533461e+02 1.7770000000e+00 0.0000e+00 -1.0000e+00
       22  1    3    3    0    0 +8.2191446791e-01 -6.2918244513e-01 -2.5858931752e+00 2.7853648692e+00 0.0000000000e+00 0.0000e+00 1.0000e+00
<mgrwt>
<rscale>  2 0.12500000E+03</rscale>
<asrwt>0</asrwt>
<pdfrwt beam="1">  1       21 0.43931577E-01 0.12500000E+03</pdfrwt>
<pdfrwt beam="2">  1       21 0.19229386E-02 0.12500000E+03</pdfrwt>
<totfact> 0.62612118E+06</totfact>
</mgrwt>
</event>
<event>
 6      0 +1.3698540e+00 1.25000000e+02 7.54677100e-03 1.12640300e-01
       21 -1    0    0  502  501 +0.0000000000e+00 +0.0000000000e+00 +3.6648933095e+01 3.6648933095e+01 0.0000000000e+00 0.0000e+00 1.0000e+00
       21 -1    0    0  501  502 -0.0000000000e+00 -0.0000000000e+00 -1.0658564029e+02 1.0658564029e+02 0.0000000000e+00 0.0000e+00 1.0000e+00
       25  2    1    2    0    0 +0.0000000000e+00 +0.0000000000e+00 -6.9936707198e+01 1.4323457339e+02 1.2500000000e+02 0.0000e+00 0.0000e+00
      -15  1    3    3    0    0 -2.3455119521e+01 +5.2256092909e+01 -2.5106710684e+01 6.2564738697e+01 1.7770000000e+00 0.0000e+00 -1.0000e+00
       15  1    3    3    0    0 +3.8844764217e+00 +3.9966612955e+00 +4.2828568158e-01 5.8654595904e+00 1.7770000000e+00 0.0000e+00 -1.0000e+00
       22  1    3    3    0    0 +1.9570643099e+01 -5.6252754205e+01 -4.5258282195e+01 7.4804375100e+01 0.0000000000e+00 0.0000e+00 -1.0000e+00
<mgrwt>
<rscale>  2 0.12500000E+03</rscale>
<asrwt>0</asrwt>
<pdfrwt beam="1">  1       21 0.53895490E-02 0.12500000E+03</pdfrwt>
<pdfrwt beam="2">  1       21 0.15674359E-01 0.12500000E+03</pdfrwt>
<totfact> 0.85779413E+06</totfact>
</mgrwt>
</event>
<event>
 6      0 +1.3698540e+00 1.25000000e+02 7.54677100e-03 1.12640300e-01
       21 -1    0    0  502  501 +0.0000000000e+00 +0.0000000000e+00 +3.2620483840e+00 3.2620483840e+00 0.0000000000e+00 0.0000e+00 1.0000e+00
       21 -1    0    0  501  502 -0.0000000000e+00 -0.0000000000e+00 -1.1974837710e+03 1.1974837710e+03 0.0000000000e+00 0.0000e+00 1.0000e+00
       25  2    1    2    0    0 +0.0000000000e+00 +0.0000000000e+00 -1.1942217226e+03 1.2007458194e+03 1.2500000000e+02 0.0000e+00 0.0000e+00
      -15  1    3    3    0    0 +2.2592571613e+01 +5.0446507536e+01 -6.3047716940e+02 6.3289801175e+02 1.7770000000e+00 0.0000e+00 -1.0000e+00
       15  1    3    3    0    0 -2.5245137674e+01 -5.6191767719e+01 -4.9777938869e+02 5.0157981346e+02 1.7770000000e+00 0.0000e+00 -1.0000e+00
       22  1    3    3    0    0 +2.6525660610e+00 +5.7452601836e+00 -6.5965161563e+01 6.6267991228e+01 0.0000000000e+00 0.0000e+00 1.0000e+00
<mgrwt>
<rscale>  2 0.12500000E+03</rscale>
<asrwt>0</asrwt>
<pdfrwt beam="1">  1       21 0.47971233E-03 0.12500000E+03</pdfrwt>
<pdfrwt beam="2">  1       21 0.17610080E+00 0.12500000E+03</pdfrwt>
<totfact> 0.16008150E+06</totfact>
</mgrwt>
</event>
<event>
 6      0 +1.3698540e+00 1.25000000e+02 7.54677100e-03 1.12640300e-01
       21 -1    0    0  502  501 +0.0000000000e+00 +0.0000000000e+00 +1.8763957580e+02 1.8763957580e+02 0.0000000000e+00 0.0000e+00 -1.0000e+00
       21 -1    0    0  501  502 -0.0000000000e+00 -0.0000000000e+00 -2.0817836447e+01 2.0817836447e+01 0.0000000000e+00 0.0000e+00 -1.0000e+00
       25  2    1    2    0    0 +0.0000000000e+00 +0.0000000000e+00 +1.6682173936e+02 2.0845741225e+02 1.2500000000e+02 0.0000e+00 0.0000e+00
      -15  1    3    3    0    0 -3.7056211505e+00 +1.4155515257e+01 -9.7635516330e+00 1.7680353779e+01 1.7770000000e+00 0.0000e+00 -1.0000e+00
       15  1    3    3    0    0 +4.1964646222e+00 -3.4339915630e+01 +4.0903456995e+01 5.3601218680e+01 1.7770000000e+00 0.0000e+00 -1.0000e+00
       22  1    3    3    0    0 -4.9084347172e-01 +2.0184400373e+01 +1.3568183400e+02 1.3717583980e+02 0.0000000000e+00 0.0000e+00 -1.0000e+00
<mgrwt>
<rscale>  2 0.12500000E+03</rscale>
<asrwt>0</asrwt>
<pdfrwt beam="1">  1       21 0.27594054E-01 0.12500000E+03</pdfrwt>
<pdfrwt beam="2">  1       21 0.30614466E-02 0.12500000E+03</pdfrwt>
<totfact> 0.75602566E+06</totfact>
</mgrwt>
</event>
<event>
 6      0 +1.3698540e+00 1.25000000e+02 7.54677100e-03 1.12640300e-01
       21 -1    0    0  502  501 +0.0000000000e+00 +0.0000000000e+00 +8.0376764376e+02 8.0376764376e+02 0.0000000000e+00 0.0000e+00 1.0000e+00
       21 -1    0    0  501  502 -0.0000000000e+00 -0.0000000000e+00 -4.8599244201e+00 4.8599244201e+00 0.0000000000e+00 0.0000e+00 1.0000e+00
       25  2    1    2    0    0 +0.0000000000e+00 +0.0000000000e+00 +7.9890771934e+02 8.0862756818e+02 1.2500000000e+02 0.0000e+00 0.0000e+00
      -15  1    3    3    0    0 +5.9999410390e+01 +1.3742114980e+01 +3.3214807079e+02 3.3780804258e+02 1.7770000000e+00 0.0000e+00 1.0000e+00
       15  1    3    3    0    0 -6.0053880430e+01 -1.3763914355e+01 +4.6639782751e+02 4.7045297866e+02 1.7770000000e+00 0.0000e+00 1.0000e+00
       22  1    3    3    0    0 +5.4470039784e-02 +2.1799375537e-02 +3.6182104136e-01 3.6654694648e-01 0.0000000000e+00 0.0000e+00 -1.0000e+00
<mgrwt>
<rscale>  2 0.12500000E+03</rscale>
<asrwt>0</asrwt>
<pdfrwt beam="1">  1       21 0.11820103E+00 0.12500000E+03</pdfrwt>
<pdfrwt beam="2">  1       21 0.71469532E-03 0.12500000E+03</pdfrwt>
<totfact> 0.27925428E+06</totfact>
</mgrwt>
</event>
<event>
 6      0 +1.3698540e+00 1.25000000e+02 7.54677100e-03 1.12640300e-01
       21 -1    0    0  502  501 +0.0000000000e+00 +0.0000000000e+00 +6.4164518334e+01 6.4164518334e+01 0.0000000000e+00 0.0000e+00 1.0000e+00
       21 -1    0    0  501  502 -0.0000000000e+00 -0.0000000000e+00 -6.0878661625e+01 6.0878661625e+01 0.0000000000e+00 0.0000e+00 1.0000e+00
       25  2    1    2    0    0 +0.0000000000e+00 +0.0000000000e+00 +3.2858567097e+00 1.2504317996e+02 1.2500000000e+02 0.0000e+00 0.0000e+00
      -15  1    3    3    0    0 -3.0200707170e+01 -3.0537771811e+01 -1.5819690889e+01 4.5804569309e+01 1.7770000000e+00 0.0000e+00 -1.0000e+00
       15  1    3    3    0    0 -1.7652274037e+01 +1.1365759505e+01 -5.9888139572e+00 2.1904494731e+01 1.7770000000e+00 0.0000e+00 -1.0000e+00
       22  1    3    3    0    0 +4.7852981207e+01 +1.9172012306e+01 +2.5094361556e+01 5.7334115919e+01 0.0000000000e+00 0.0000e+00 -1.0000e+00
<mgrwt>
<rscale>  2 0.12500000E+03</rscale>
<asrwt>0</asrwt>
<pdfrwt beam="1">  1       21 0.94359586E-02 0.12500000E+03</pdfrwt>
<pdfrwt beam="2">  1       21 0.89527444E-02 0.12500000E+03</pdfrwt>
<totfact> 0.88993112E+06</totfact>
</mgrwt>
</event>
<event>
 6      0 +1.3698540e+00 1.25000000e+02 7.54677100e-03 1.12640300e-01
       21 -1    0    0  502  501 +0.0000000000e+00 +0.0000000000e+00 +2.2610717224e+02 2.2610717224e+02 0.0000000000e+00 0.0000e+00 -1.0000e+00
       21 -1    0    0  501  502 -0.0000000000e+00 -0.0000000000e+00 -1.7276099476e+01 1.7276099476e+01 0.0000000000e+00 0.0000e+00 -1.0000e+00
       25  2    1    2    0    0 +0.0000000000e+00 +0.0000000000e+00 +2.0883107277e+02 2.4338327172e+02 1.2500000000e+02 0.0000e+00 0.0000e+00
      -15  1    3    3    0    0 +1.7045859526e+01 +5.9509315927e+01 +1.2069916121e+02 1.3565900359e+02 1.7770000000e+00 0.0000e+00 -1.0000e+00
       15  1    3    3    0    0 -1.6434195472e+01 -5.8126645562e+01 +8.5826480070e+01 1.0496729069e+02 1.7770000000e+00 0.0000e+00 -1.0000e+00
       22  1    3    3    0    0 -6.1166405352e-01 -1.3826703654e+00 +2.3054314960e+00 2.7569774457e+00 0.0000000000e+00 0.0000e+00 1.0000e+00
<mgrwt>
<rscale>  2 0.12500000E+03</rscale>
<asrwt>0</asrwt>
<pdfrwt beam="1">  1       21 0.33251053E-01 0.12500000E+03</pdfrwt>
<pdfrwt beam="2">  1       21 0.25406030E-02 0.12500000E+03</pdfrwt>
<totfact> 0.70861550E+06</totfact>
</mgrwt>
</event>
<event>
 6      0 +1.3698540e+00 1.25000000e+02 7.54677100e-03 1.12640300e-01
       21 -1    0    0  502  501 +0.0000000000e+00 +0.0000000000e+00 +4.5305905544e+01 4.5305905544e+01 0.0000000000e+00 0.0000e+00 1.0000e+00
       21 -1    0    0  501  502 -0.0000000000e+00 -0.0000000000e+00 -8.6219444311e+01 8.6219444311e+01 0.0000000000e+00 0.0000e+00 1.0000e+00
       25  2    1    2    0    0 +0.0000000000e+00 +0.0000000000e+00 -4.0913538768e+01 1.3152534986e+02 1.2500000000e+02 0.0000e+00 0.0000e+00
      -15  1    3    3    0    0 -5.7013338849e+01 +2.1920258219e+01 -3.2100850642e+01 6.9026378060e+01 1.7770000000e+00 0.0000e+00 1.0000e+00
       15  1    3    3    0    0 +5.7240599764e+01 -2.1785155113e+01 -8.1827615240e+00 6.1815811568e+01 1.7770000000e+00 0.0000e+00 1.0000e+00
       22  1    3    3    0    0 -2.2726091493e-01 -1.3510310626e-01 -6.2992660118e-01 6.8316022692e-01 0.0000000000e+00 0.0000e+00 -1.0000e+00
<mgrwt>
<rscale>  2 0.12500000E+03</rscale>
<asrwt>0</asrwt>
<pdfrwt beam="1">  1       21 0.66626333E-02 0.12500000E+03</pdfrwt>
<pdfrwt beam="2">  1       21 0.12679330E-01 0.12500000E+03</pdfrwt>
<totfact> 0.87821358E+06</totfact>
</mgrwt>
</event>
<event>
 6      0 +1.3698540e+00 1.25000000e+02 7.54677100e-03 1.12640300e-01
       21 -1    0    0  502  501 +0.0000000000e+00 +0.0000000000e+00 +4.4395089541e+02 4.4395089541e+02 0.0000000000e+00 0.0000e+00 1.0000e+00
       21 -1    0    0  501  502 -0.0000000000e+00 -0.0000000000e+00 -8.7988334755e+00 8.7988334755e+00 0.0000000000e+00 0.0000e+00 1.0000e+00
       25  2    1    2    0    0 +0.0000000000e+00 +0.0000000000e+00 +4.3515206193e+02 4.5274972888e+02 1.2500000000e+02 0.0000e+00 0.0000e+00
      -15  1    3    3    0    0 +2.5478369027e+01 -1.4431747845e+01 +1.1152075944e+02 1.1531461377e+02 1.7770000000e+00 0.0000e+00 -1.0000e+00
       15  1    3    3    0    0 +3.0149836729e+01 -8.1671935707e+00 +1.6240304973e+02 1.6538931040e+02 1.7770000000e+00 0.0000e+00 -1.0000e+00
       22  1    3    3    0    0 -5.5628205756e+01 +2.2598941416e+01 +1.6122825277e+02 1.7204580472e+02 0.0000000000e+00 0.0000e+00 -1.0000e+00
<mgrwt>
<rscale>  2 0.12500000E+03</rscale>
<asrwt>0</asrwt>
<pdfrwt beam="1">  1       21 0.65286881E-01 0.12500000E+03</pdfrwt>
<pdfrwt beam="2">  1       21 0.12939464E-02 0.12500000E+03</pdfrwt>
<totfact> 0.49047488E+06</totfact>
</mgrwt>
</event>
<event>
 6      0 +1.3698540e+00 1.25000000e+02 7.54677100e-03 1.12640300e-01
       21 -1    0    0  502  501 +0.0000000000e+00 +0.0000000000e+00 +2.3736186870e+03 2.3736186870e+03 0.0000000000e+00 0.0000e+00 1.0000e+00
       21 -1    0    0  501  502 -0.0000000000e+00 -0.0000000000e+00 -1.6456939868e+00 1.6456939868e+00 0.0000000000e+00 0.0000e+00 1.0000e+00
       25  2    1    2    0    0 +0.0000000000e+00 +0.0000000000e+00 +2.3719729930e+03 2.3752643810e+03 1.2500000000e+02 0.0000e+00 0.0000e+00
      -15  1    3    3    0    0 -9.1386350382e+00 -3.8884119774e+01 +2.7317272996e+02 2.7608329820e+02 1.7770000000e+00 0.0000e+00 1.0000e+00
       15  1    3    3    0    0 +9.1386594982e+00 +3.8884203011e+01 +2.0987994460e+03 2.0991802611e+03 1.7770000000e+00 0.0000e+00 1.0000e+00
       22  1    3    3    0    0 -2.4459988738e-05 -8.3237009087e-05 +8.0750598700e-04 8.1215307040e-04 0.0000000000e+00 0.0000e+00 -1.0000e+00
<mgrwt>
<rscale>  2 0.12500000E+03</rscale>
<asrwt>0</asrwt>
<pdfrwt beam="1">  1       21 0.34905918E+00 0.12500000E+03</pdfrwt>
<pdfrwt beam="2">  1       21 0.24201548E-03 0.12500000E+03</pdfrwt>
<totfact> 0.32567793E+05</totfact>
</mgrwt>
</event>
<event>
 6      0 +1.3698540e+00 1.25000000e+02 7.54677100e-03 1.12640300e-01
       21 -1    0    0  502  501 +0.0000000000e+00 +0.0000000000e+00 +7.7845277723e+01 7.7845277723e+01 0.0000000000e+00 0.0000e+00 -1.0000e+00
       21 -1    0    0  501  502 -0.0000000000e+00 -0.0000000000e+00 -5.0179665540e+01 5.0179665540e+01 0.0000000000e+00 0.0000e+00 -1.0000e+00
       25  2    1    2    0    0 +0.0000000000e+00 +0.0000000000e+00 +2.7665612183e+01 1.2802494326e+02 1.2500000000e+02 0.0000e+00 0.0000e+00
      -15  1    3    3    0    0 -1.9861208522e+00 -2.2299426278e+01 +6.8103342990e+01 7.1710753334e+01 1.7770000000e+00 0.0000e+00 -1.0000e+00
       15  1    3    3    0    0 +1.0359516338e+01 -4.2568305383e+00 -1.2210376762e+01 1.6664069570e+01 1.7770000000e+00 0.0000e+00 -1.0000e+00
       22  1    3    3    0    0 -8.3733954863e+00 +2.6556256817e+01 -2.8227354044e+01 3.9650120359e+01 0.0000000000e+00 0.0000e+00 -1.0000e+00
<mgrwt>
<rscale>  2 0.12500000E+03</rscale>
<asrwt>0</asrwt>
<pdfrwt beam="1">  1       21 0.11447835E-01 0.12500000E+03</pdfrwt>
<pdfrwt beam="2">  1       21 0.73793625E-02 0.12500000E+03</pdfrwt>
<totfact> 0.88453280E+06</totfact>
</mgrwt>
</event>
<event>
 6      0 +1.3698540e+00 1.25000000e+02 7.54677100e-03 1.12640300e-01
       21 -1    0    0  502  501 +0.0000000000e+00 +0.0000000000e+00 +1.4484091606e+02 1.4484091606e+02 0.0000000000e+00 0.0000e+00 1.0000e+00
       21 -1    0    0  501  502 -0.0000000000e+00 -0.0000000000e+00 -2.6969243956e+01 2.6969243956e+01 0.0000000000e+00 0.0000e+00 1.0000e+00
       25  2    1    2    0    0 +0.0000000000e+00 +0.0000000000e+00 +1.1787167210e+02 1.7181016001e+02 1.2500000000e+02 0.0000e+00 0.0000e+00
      -15  1    3    3    0    0 +3.3501022697e+00 -2.8766212841e+01 +6.2843618937e+01 6.9218468320e+01 1.7770000000e+00 0.0000e+00 -1.0000e+00
       15  1    3    3    0    0 +5.3407230235e-01 +5.4487005283e+01 +5.3732394310e+01 7.6547024144e+01 1.7770000000e+00 0.0000e+00 -1.0000e+00
       22  1    3    3    0    0 -3.8841745721e+00 -2.5720792442e+01 +1.2956588567e+00 2.6044667552e+01 0.0000000000e+00 0.0000e+00 -1.0000e+00
<mgrwt>
<rscale>  2 0.12500000E+03</rscale>
<asrwt>0</asrwt>
<pdfrwt beam="1">  1       21 0.21300134E-01 0.12500000E+03</pdfrwt>
<pdfrwt beam="2">  1       21 0.39660654E-02 0.12500000E+03</pdfrwt>
<totfact> 0.81077893E+06</totfact>
</mgrwt>
</event>
<event>
 6      0 +1.3698540e+00 1.25000000e+02 7.54677100e-03 1.12640300e-01
       21 -1    0    0  502  501 +0.0000000000e+00 +0.0000000000e+00 +6.4271240348e+01 6.4271240348e+01 0.0000000000e+00 0.0000e+00 1.0000e+00
       21 -1    0    0  501  502 -0.0000000000e+00 -0.0000000000e+00 -6.0777572968e+01 6.0777572968e+01 0.0000000000e+00 0.0000e+00 1.0000e+00
       25  2    1    2    0    0 +0.0000000000e+00 +0.0000000000e+00 +3.4936673793e+00 1.2504881332e+02 1.2500000000e+02 0.0000e+00 0.0000e+00
      -15  1    3    3    0    0 -9.2601167998e+00 +1.1846137338e+01 +2.5687377052e+00 1.5356981324e+01 1.7770000000e+00 0.0000e+00 -1.0000e+00
       15  1    3    3    0    0 -4.8357972188e+01 -1.5755992819e+01 -7.1085753892e+00 5.1385156971e+01 1.7770000000e+00 0.0000e+00 -1.0000e+00
       22  1    3    3    0    0 +5.7618088988e+01 +3.9098554817e+00 +8.0335050632e+00 5.8306675021e+01 0.0000000000e+00 0.0000e+00 -1.0000e+00
<mgrwt>
<rscale>  2 0.12500000E+03</rscale>
<asrwt>0</asrwt>
<pdfrwt beam="1">  1       21 0.94516530E-02 0.12500000E+03</pdfrwt>
<pdfrwt beam="2">  1       21 0.89378783E-02 0.12500000E+03</pdfrwt>
<totfact> 0.88991918E+06</totfact>
</mgrwt>
</event>
<event>
 6      0 +1.3698540e+00 1.25000000e+02 7.54677100e-03 1.12640300e-01
       21 -1    0    0  502  501 +0.0000000000e+00 +0.0000000000e+00 +1.5662355376e+02 1.5662355376e+02 0.0000000000e+00 0.0000e+00 -1.0000e+00
       21 -1    0    0  501  502 -0.0000000000e+00 -0.0000000000e+00 -2.4940373948e+01 2.4940373948e+01 0.0000000000e+00 0.0000e+00 -1.0000e+00
       25  2    1    2    0    0 +0.0000000000e+00 +0.0000000000e+00 +1.3168317982e+02 1.8156392771e+02 1.2500000000e+02 0.0000e+00 0.0000e+00
      -15  1    3    3    0    0 +2.4057267473e+01 +2.3049715265e+01 +3.8884032071e+01 5.1236385227e+01 1.7770000000e+00 0.0000e+00 -1.0000e+00
       15  1    3    3    0    0 -9.0811758599e+00 +2.3735810374e+01 +7.3080590908e+01 7.7393713864e+01 1.7770000000e+00 0.0000e+00 -1.0000e+00
       22  1    3    3    0    0 -1.4976091613e+01 -4.6785525639e+01 +1.9718556850e+01 5.2933828631e+01 0.0000000000e+00 0.0000e+00 -1.0000e+00
<mgrwt>
<rscale>  2 0.12500000E+03</rscale>
<asrwt>0</asrwt>
<pdfrwt beam="1">  1       21 0.23032875E-01 0.12500000E+03</pdfrwt>
<pdfrwt beam="2">  1       21 0.36677022E-02 0.12500000E+03</pdfrwt>
<totfact> 0.79567619E+06</totfact>
</mgrwt>
</event>
<event>
 6      0 +1.3698540e+00 1.25000000e+02 7.54677100e-03 1.12640300e-01
       21 -1    0    0  502  501 +0.0000000000e+00 +0.0000000000e+00 +4.5083752325e+01 4.5083752325e+01 0.0000000000e+00 0.0000e+00 -1.0000e+00
       21 -1    0    0  501  502 -0.0000000000e+00 -0.0000000000e+00 -8.6644296416e+01 8.6644296416e+01 0.0000000000e+00 0.0000e+00 -1.0000e+00
       25  2    1    2    0    0 +0.0000000000e+00 +0.0000000000e+00 -4.1560544091e+01 1.3172804874e+02 1.2500000000e+02 0.0000e+00 0.0000e+00
      -15  1    3    3    0    0 +1.0852943754e+01 +8.6074994239e-01 -3.9310177298e+00 1.1710589565e+01 1.7770000000e+00 0.0000e+00 -1.0000e+00
       15  1    3    3    0    0 -3.1400359689e+01 +3.4468707403e+00 -7.2619487699e+01 7.9212443651e+01 1.7770000000e+00 0.0000e+00 -1.0000e+00
       22  1    3    3    0    0 +2.0547415935e+01 -4.3076206827e+00 +3.4989961337e+01 4.0805015525e+01 0.0000000000e+00 0.0000e+00 -1.0000e+00
<mgrwt>
<rscale>  2 0.12500000E+03</rscale>
<asrwt>0</asrwt>
<pdfrwt beam="1">  1       21 0.66299636E-02 0.12500000E+03</pdfrwt>
<pdfrwt beam="2">  1       21 0.12741808E-01 0.12500000E+03</pdfrwt>
<totfact> 0.87784949E+06</totfact>
</mgrwt>
</event>
<event>
 6      0 +1.3698540e+00 1.25000000e+02 7.54677100e-03 1.12640300e-01
       21 -1    0    0  502  501 +0.0000000000e+00 +0.0000000000e+00 +3.0037032008e+00 3.0037032008e+00 0.0000000000e+00 0.0000e+00 -1.0000e+00
       21 -1    0    0  501  502 -0.0000000000e+00 -0.0000000000e+00 -1.3004780229e+03 1.3004780229e+03 0.0000000000e+00 0.0000e+00 -1.0000e+00
       25  2    1    2    0    0 +0.0000000000e+00 +0.0000000000e+00 -1.2974743197e+03 1.3034817261e+03 1.2500000000e+02 0.0000e+00 0.0000e+00
      -15  1    3    3    0    0 +3.2660018237e+01 +1.5941655707e+01 -1.8565954649e+02 1.8919153815e+02 1.7770000000e+00 0.0000e+00 -1.0000e+00
       15  1    3    3    0    0 +1.2920299616e+01 -2.3984237856e+01 -3.4398926088e+02 3.4507093059e+02 1.7770000000e+00 0.0000e+00 -1.0000e+00
       22  1    3    3    0    0 -4.5580317853e+01 +8.0425821488e+00 -7.6782551251e+02 7.6921925754e+02 0.0000000000e+00 0.0000e+00 -1.0000e+00
<mgrwt>
<rscale>  2 0.12500000E+03</rscale>
<asrwt>0</asrwt>
<pdfrwt beam="1">  1       21 0.44172144E-03 0.12500000E+03</pdfrwt>
<pdfrwt beam="2">  1       21 0.19124660E+00 0.12500000E+03</pdfrwt>
<totfact> 0.13896781E+06</totfact>
</mgrwt>
</event>
<event>
 6      0 +1.3698540e+00 1.25000000e+02 7.54677100e-03 1.12640300e-01
       21 -1    0    0  502  501 +0.0000000000e+00 +0.0000000000e+00 +4.8684011281e+02 4.8684011281e+02 0.0000000000e+00 0.0000e+00 1.0000e+00
       21 -1    0    0  501  502 -0.0000000000e+00 -0.0000000000e+00 -8.0236814864e+00 8.0236814864e+00 0.0000000000e+00 0.0000e+00 1.0000e+00
       25  2    1    2    0    0 +0.0000000000e+00 +0.0000000000e+00 +4.7881643132e+02 4.9486379429e+02 1.2500000000e+02 0.0000e+00 0.0000e+00
      -15  1    3    3    0    0 +2.3658753653e+01 -5.4004236418e+01 +1.6889046588e+02 1.7889477737e+02 1.7770000000e+00 0.0000e+00 1.0000e+00
       15  1    3    3    0    0 -2.4206689975e+01 +5.5020015046e+01 +3.0677011129e+02 3.1260874077e+02 1.7770000000e+00 0.0000e+00 1.0000e+00
       22  1    3    3    0    0 +5.4793632182e-01 -1.0157786286e+00 +3.1558541856e+00 3.3602761905e+00 0.0000000000e+00 0.0000e+00 -1.0000e+00
<mgrwt>
<rscale>  2 0.12500000E+03</rscale>
<asrwt>0</asrwt>
<pdfrwt beam="1">  1       21 0.71594114E-01 0.12500000E+03</pdfrwt>
<pdfrwt beam="2">  1       21 0.11799535E-02 0.12500000E+03</pdfrwt>
<totfact> 0.45710441E+06</totfact>
</mgrwt>
</event>
<event>
 6      0 +1.3698540e+00 1.25000000e+02 7.54677100e-03 1.12640300e-01
       21 -1    0    0  502  501 +0.0000000000e+00 +0.0000000000e+00 +3.1011333808e+02 3.1011333808e+02 0.0000000000e+00 0.0000e+00 -1.0000e+00
       21 -1    0    0  501  502 -0.0000000000e+00 -0.0000000000e+00 -1.2596201196e+01 1.2596201196e+01 0.0000000000e+00 0.0000e+00 -1.0000e+00
       25  2    1    2    0    0 +0.0000000000e+00 +0.0000000000e+00 +2.9751713689e+02 3.2270953928e+02 1.2500000000e+02 0.0000e+00 0.0000e+00
      -15  1    3    3    0    0 +4.3426081410e+01 -3.5178985432e+01 +7.6669868231e+01 9.4893687810e+01 1.7770000000e+00 0.0000e+00 1.0000e+00
       15  1    3    3    0    0 -4.3425517658e+01 +3.5178673136e+01 +2.2084409388e+02 2.2781261194e+02 1.7770000000e+00 0.0000e+00 1.0000e+00
       22  1    3    3    0    0 -5.6375249145e-04 +3.1229657054e-04 +3.1747882092e-03 3.2395410466e-03 0.0000000000e+00 0.0000e+00 1.0000e+00
<mgrwt>
<rscale>  2 0.12500000E+03</rscale>
<asrwt>0</asrwt>
<pdfrwt beam="1">  1       21 0.45604898E-01 0.12500000E+03</pdfrwt>
<pdfrwt beam="2">  1       21 0.18523827E-02 0.12500000E+03</pdfrwt>
<totfact> 0.61410353E+06</totfact>
</mgrwt>
</event>
<event>
 6      0 +1.3698540e+00 1.25000000e+02 7.54677100e-03 1.12640300e-01
       21 -1    0    0  502  501 +0.0000000000e+00 +0.0000000000e+00 +1.1156936252e+01 1.1156936252e+01 0.0000000000e+00 0.0000e+00 1.0000e+00
       21 -1    0    0  501  502 -0.0000000000e+00 -0.0000000000e+00 -3.5011851925e+02 3.5011851925e+02 0.0000000000e+00 0.0000e+00 1.0000e+00
       25  2    1    2    0    0 +0.0000000000e+00 +0.0000000000e+00 -3.3896158300e+02 3.6127545550e+02 1.2500000000e+02 0.0000e+00 0.0000e+00
      -15  1    3    3    0    0 -1.3075851941e+00 -3.1153755144e+01 -7.2648389781e+01 7.9077256562e+01 1.7770000000e+00 0.0000e+00 -1.0000e+00
       15  1    3    3    0    0 -3.1588213641e+01 +4.6128357976e+01 -1.3838682989e+02 1.4926390410e+02 1.7770000000e+00 0.0000e+00 -1.0000e+00
       22  1    3    3    0    0 +3.2895798835e+01 -1.4974602832e+01 -1.2792636336e+02 1.3293429487e+02 0.0000000000e+00 0.0000e+00 -1.0000e+00
<mgrwt>
<rscale>  2 0.12500000E+03</rscale>
<asrwt>0</asrwt>
<pdfrwt beam="1">  1       21 0.16407262E-02 0.12500000E+03</pdfrwt>
<pdfrwt beam="2">  1       21 0.51488007E-01 0.12500000E+03</pdfrwt>
<totfact> 0.57386811E+06</totfact>
</mgrwt>
</event>
<event>
 6      0 +1.3698540e+00 1.25000000e+02 7.54677100e-03 1.12640300e-01
       21 -1    0    0  502  501 +0.0000000000e+00 +0.0000000000e+00 +3.0276555383e+01 3.0276555383e+01 0.0000000000e+00 0.0000e+00 -1.0000e+00
       21 -1    0    0  501  502 -0.0000000000e+00 -0.0000000000e+00 -1.2901897031e+02 1.2901897031e+02 0.0000000000e+00 0.0000e+00 -1.0000e+00
       25  2    1    2    0    0 +0.0000000000e+00 +0.0000000000e+00 -9.8742414928e+01 1.5929552569e+02 1.2500000000e+02 0.0000e+00 0.0000e+00
      -15  1    3    3    0    0 -4.8206166087e+01 -3.1064305690e+00 -4.8007349600e+01 6.8127437236e+01 1.7770000000e+00 0.0000e+00 -1.0000e+00
       15  1    3    3    0    0 -3.4245196037e+00 -1.1899988260e+01 -3.1786536627e+01 3.4159606187e+01 1.7770000000e+00 0.0000e+00 -1.0000e+00
       22  1    3    3    0    0 +5.1630685691e+01 +1.5006418829e+01 -1.8948528705e+01 5.7008482273e+01 0.0000000000e+00 0.0000e+00 -1.0000e+00
<mgrwt>
<rscale>  2 0.12500000E+03</rscale>
<asrwt>0</asrwt>
<pdfrwt beam="1">  1       21 0.44524346E-02 0.12500000E+03</pdfrwt>
<pdfrwt beam="2">  1       21 0.18973378E-01 0.12500000E+03</pdfrwt>
<totfact> 0.83093398E+06</totfact>
</mgrwt>
</event>
<event>
 6      0 +1.3698540e+00 1.25000000e+02 7.54677100e-03 1.12640300e-01
       21 -1    0    0  502  501 +0.0000000000e+00 +0.0000000000e+00 +1.4436064759e+02 1.4436064759e+02 0.0000000000e+00 0.0000e+00 -1.0000e+00
       21 -1    0    0  501  502 -0.0000000000e+00 -0.0000000000e+00 -2.7058967006e+01 2.7058967006e+01 0.0000000000e+00 0.0000e+00 -1.0000e+00
       25  2    1    2    0    0 +0.0000000000e+00 +0.0000000000e+00 +1.1730168058e+02 1.7141961459e+02 1.2500000000e+02 0.0000e+00 0.0000e+00
      -15  1    3    3    0    0 +4.9836964346e-01 +2.1195206908e+01 +2.3235198675e+01 3.1504243439e+01 1.7770000000e+00 0.0000e+00 -1.0000e+00
       15  1    3    3    0    0 +4.9446909443e+01 -1.2666174272e+01 +3.4113058794e+01 6.1418949303e+01 1.7770000000e+00 0.0000e+00 -1.0000e+00
       22  1    3    3    0    0 -4.9945279086e+01 -8.5290326352e+00 +5.9953423113e+01 7.8496421853e+01 0.0000000000e+00 0.0000e+00 -1.0000e+00
<mgrwt>
<rscale>  2 0.12500000E+03</rscale>
<asrwt>0</asrwt>
<pdfrwt beam="1">  1       21 0.21229507E-01 0.12500000E+03</pdfrwt>
<pdfrwt beam="2">  1       21 0.39792599E-02 0.12500000E+03</pdfrwt>
<totfact> 0.81139492E+06</totfact>
</mgrwt>
</event>
<event>
 6      0 +1.3698540e+00 1.25000000e+02 7.54677100e-03 1.12640300e-01
       21 -1    0    0  502  501 +0.0000000000e+00 +0.0000000000e+00 +1.5949428154e+00 1.5949428154e+00 0.0000000000e+00 0.0000e+00 -1.0000e+00
       21 -1    0    0  501  502 -0.0000000000e+00 -0.0000000000e+00 -2.4491473690e+03 2.4491473690e+03 0.0000000000e+00 0.0000e+00 -1.0000e+00
       25  2    1    2    0    0 +0.0000000000e+00 +0.0000000000e+00 -2.4475524262e+03 2.4507423119e+03 1.2500000000e+02 0.0000e+00 0.0000e+00
      -15  1    3    3    0    0 +2.3762363313e+01 +4.8997321082e+00 -9.5111523804e+01 9.8173402580e+01 1.7770000000e+00 0.0000e+00 -1.0000e+00
       15  1    3    3    0    0 -2.3762631287e+01 -4.9146204024e+00 -2.3523912616e+03 2.3525170821e+03 1.7770000000e+00 0.0000e+00 -1.0000e+00
       22  1    3    3    0    0 +2.6797437365e-04 +1.4888294168e-02 -4.9614157394e-02 5.1800557211e-02 0.0000000000e+00 0.0000e+00 1.0000e+00
<mgrwt>
<rscale>  2 0.12500000E+03</rscale>
<asrwt>0</asrwt>
<pdfrwt beam="1">  1       21 0.23455023E-03 0.12500000E+03</pdfrwt>
<pdfrwt beam="2">  1       21 0.36016901E+00 0.12500000E+03</pdfrwt>
<totfact> 0.29374765E+05</totfact>
</mgrwt>
</event>
<event>
 6      0 +1.3698540e+00 1.25000000e+02 7.54677100e-03 1.12640300e-01
       21 -1    0    0  502  501 +0.0000000000e+00 +0.0000000000e+00 +3.6535225616e+02 3.6535225616e+02 0.0000000000e+00 0.0000e+00 -1.0000e+00
       21 -1    0    0  501  502 -0.0000000000e+00 -0.0000000000e+00 -1.0691736356e+01 1.0691736356e+01 0.0000000000e+00 0.0000e+00 -1.0000e+00
       25  2    1    2    0    0 +0.0000000000e+00 +0.0000000000e+00 +3.5466051981e+02 3.7604399252e+02 1.2500000000e+02 0.0000e+00 0.0000e+00
      -15  1    3    3    0    0 +1.2749080341e+00 -6.1019557507e+00 +1.5736693116e+01 1.7019415198e+01 1.7770000000e+00 0.0000e+00 1.0000e+00
       15  1    3    3    0    0 +7.1598031227e+00 +4.2102914059e+01 +3.0762510422e+02 3.1058055417e+02 1.7770000000e+00 0.0000e+00 1.0000e+00
       22  1    3    3    0    0 -8.4347111568e+00 -3.6000958309e+01 +3.1298722494e+01 4.8444023173e+01 0.0000000000e+00 0.0000e+00 1.0000e+00
<mgrwt>
<rscale>  2 0.12500000E+03</rscale>
<asrwt>0</asrwt>
<pdfrwt beam="1">  1       21 0.53728265E-01 0.12500000E+03</pdfrwt>
<pdfrwt beam="2">  1       21 0.15723144E-02 0.12500000E+03</pdfrwt>
<totfact> 0.55928277E+06</totfact>
</mgrwt>
</event>
<event>
 6      0 +1.3698540e+00 1.25000000e+02 7.54677100e-03 1.12640300e-01
       21 -1    0    0  502  501 +0.0000000000e+00 +0.0000000000e+00 +5.5897423490e+01 5.5897423490e+01 0.0000000000e+00 0.0000e+00 -1.0000e+00
       21 -1    0    0  501  502 -0.0000000000e+00 -0.0000000000e+00 -6.9882469640e+01 6.9882469640e+01 0.0000000000e+00 0.0000e+00 -1.0000e+00
       25  2    1    2    0    0 +0.0000000000e+00 +0.0000000000e+00 -1.3985046149e+01 1.2577989313e+02 1.2500000000e+02 0.0000e+00 0.0000e+00
      -15  1    3    3    0    0 +1.0721589848e+01 -8.7136220210e+00 -2.8588490658e+01 3.1801560099e+01 1.7770000000e+00 0.0000e+00 -1.0000e+00
       15  1    3    3    0    0 +2.7851200948e+01 -2.7506661035e+01 +3.7879702548e-01 3.9186821914e+01 1.7770000000e+00 0.0000e+00 -1.0000e+00
       22  1    3    3    0    0 -3.8572790796e+01 +3.6220283056e+01 +1.4224647484e+01 5.4791511117e+01 0.0000000000e+00 0.0000e+00 -1.0000e+00
<mgrwt>
<rscale>  2 0.12500000E+03</rscale>
<asrwt>0</asrwt>
<pdfrwt beam="1">  1       21 0.82202094E-02 0.12500000E+03</pdfrwt>
<pdfrwt beam="2">  1       21 0.10276834E-01 0.12500000E+03</pdfrwt>
<totfact> 0.88851772E+06</totfact>
</mgrwt>
</event>
<event>
 6      0 +1.3698540e+00 1.25000000e+02 7.54677100e-03 1.12640300e-01
       21 -1    0    0  502  501 +0.0000000000e+00 +0.0000000000e+00 +2.9812732075e+02 2.9812732075e+02 0.0000000000e+00 0.0000e+00 1.0000e+00
       21 -1    0    0  501  502 -0.0000000000e+00 -0.0000000000e+00 -1.3102623370e+01 1.3102623370e+01 0.0000000000e+00 0.0000e+00 1.0000e+00
       25  2    1    2    0    0 +0.0000000000e+00 +0.0000000000e+00 +2.8502469738e+02 3.1122994412e+02 1.2500000000e+02 0.0000e+00 0.0000e+00
      -15  1    3    3    0    0 +3.9596098949e+01 +4.4513783595e+01 +9.5685695413e+01 1.1273082106e+02 1.7770000000e+00 0.0000e+00 -1.0000e+00
       15  1    3    3    0    0 -3.9593792004e+01 -4.4514355673e+01 +1.8933302562e+02 1.9849269142e+02 1.7770000000e+00 0.0000e+00 -1.0000e+00
       22  1    3    3    0    0 -2.3069454157e-03 +5.7207853697e-04 +5.9763437622e-03 6.4316370985e-03 0.0000000000e+00 0.0000e+00 1.0000e+00
<mgrwt>
<rscale>  2 0.12500000E+03</rscale>
<asrwt>0</asrwt>
<pdfrwt beam="1">  1       21 0.43842249E-01 0.12500000E+03</pdfrwt>
<pdfrwt beam="2">  1       21 0.19268566E-02 0.12500000E+03</pdfrwt>
<totfact> 0.62677030E+06</totfact>
</mgrwt>
</event>
<event>
 6      0 +1.3698540e+00 1.25000000e+02 7.54677100e-03 1.12640300e-01
       21 -1    0    0  502  501 +0.0000000000e+00 +0.0000000000e+00 +2.5428373940e+01 2.5428373940e+01 0.0000000000e+00 0.0000e+00 1.0000e+00
       21 -1    0    0  501  502 -0.0000000000e+00 -0.0000000000e+00 -1.5361776609e+02 1.5361776609e+02 0.0000000000e+00 0.0000e+00 1.0000e+00
       25  2    1    2    0    0 +0.0000000000e+00 +0.0000000000e+00 -1.2818939215e+02 1.7904614003e+02 1.2500000000e+02 0.0000e+00 0.0000e+00
      -15  1    3    3    0    0 +1.3971449849e+01 +6.0621175969e+01 -7.2318345014e+01 9.5410843940e+01 1.7770000000e+00 0.0000e+00 1.0000e+00
       15  1    3    3    0    0 -1.3971495469e+01 -6.0620871709e+01 -5.5870791228e+01 8.3634895910e+01 1.7770000000e+00 0.0000e+00 1.0000e+00
       22  1    3    3    0    0 +4.5620712587e-05 -3.0426011324e-04 -2.5590875241e-04 4.0018090346e-04 0.0000000000e+00 0.0000e+00 -1.0000e+00
<mgrwt>
<rscale>  2 0.12500000E+03</rscale>
<asrwt>0</asrwt>
<pdfrwt beam="1">  1       21 0.37394667E-02 0.12500000E+03</pdfrwt>
<pdfrwt beam="2">  1       21 0.22590848E-01 0.12500000E+03</pdfrwt>
<totfact> 0.79952610E+06</totfact>
</mgrwt>
</event>
<event>
 6      0 +1.3698540e+00 1.25000000e+02 7.54677100e-03 1.12640300e-01
       21 -1    0    0  502  501 +0.0000000000e+00 +0.0000000000e+00 +3.8759960862e+01 3.8759960862e+01 0.0000000000e+00 0.0000e+00 1.0000e+00
       21 -1    0    0  501  502 -0.0000000000e+00 -0.0000000000e+00 -1.0078054552e+02 1.0078054552e+02 0.0000000000e+00 0.0000e+00 1.0000e+00
       25  2    1    2    0    0 +0.0000000000e+00 +0.0000000000e+00 -6.2020584657e+01 1.3954050638e+02 1.2500000000e+02 0.0000e+00 0.0000e+00
      -15  1    3    3    0    0 +1.8945969445e+00 -4.3820063504e+01 -8.0674855669e+01 9.1844311360e+01 1.7770000000e+00 0.0000e+00 1.0000e+00
       15  1    3    3    0    0 -1.8945969451e+00 +4.3820063193e+01 +1.8654270810e+01 4.7696194651e+01 1.7770000000e+00 0.0000e+00 1.0000e+00
       22  1    3    3    0    0 +5.8719045399e-10 +3.1144277349e-07 +2.0035360127e-07 3.7032217257e-07 0.0000000000e+00 0.0000e+00 1.0000e+00
<mgrwt>
<rscale>  2 0.12500000E+03</rscale>
<asrwt>0</asrwt>
<pdfrwt beam="1">  1       21 0.56999943E-02 0.12500000E+03</pdfrwt>
<pdfrwt beam="2">  1       21 0.14820668E-01 0.12500000E+03</pdfrwt>
<totfact> 0.86419714E+06</totfact>
</mgrwt>
</event>
<event>
 6      0 +1.3698540e+00 1.25000000e+02 7.54677100e-03 1.12640300e-01
       21 -1    0    0  502  501 +0.0000000000e+00 +0.0000000000e+00 +3.1134206896e+02 3.1134206896e+02 0.0000000000e+00 0.0000e+00 1.0000e+00
       21 -1    0    0  501  502 -0.0000000000e+00 -0.0000000000e+00 -1.2546489503e+01 1.2546489503e+01 0.0000000000e+00 0.0000e+00 1.0000e+00
       25  2    1    2    0    0 +0.0000000000e+00 +0.0000000000e+00 +2.9879557946e+02 3.2388855846e+02 1.2500000000e+02 0.0000e+00 0.0000e+00
      -15  1    3    3    0    0 +2.3224794790e+01 +1.1102197209e+01 +1.8882218344e+02 1.9057708300e+02 1.7770000000e+00 0.0000e+00 -1.0000e+00
       15  1    3    3    0    0 +5.5608380219e+00 +2.5977851729e+01 +5.4394891055e+01 6.0561816369e+01 1.7770000000e+00 0.0000e+00 -1.0000e+00
       22  1    3    3    0    0 -2.8785632812e+01 -3.7080048938e+01 +5.5578504994e+01 7.2749659126e+01 0.0000000000e+00 0.0000e+00 -1.0000e+00
<mgrwt>
<rscale>  2 0.12500000E+03</rscale>
<asrwt>0</asrwt>
<pdfrwt beam="1">  1       21 0.45785593E-01 0.12500000E+03</pdfrwt>
<pdfrwt beam="2">  1       21 0.18450722E-02 0.12500000E+03</pdfrwt>
<totfact> 0.61282169E+06</totfact>
</mgrwt>
</event>
<event>
 6      0 +1.3698540e+00 1.25000000e+02 7.54677100e-03 1.12640300e-01
       21 -1    0    0  502  501 +0.0000000000e+00 +0.0000000000e+00 +6.5976580466e+00 6.5976580466e+00 0.0000000000e+00 0.0000e+00 1.0000e+00
       21 -1    0    0  501  502 -0.0000000000e+00 -0.0000000000e+00 -5.9206615020e+02 5.9206615020e+02 0.0000000000e+00 0.0000e+00 1.0000e+00
       25  2    1    2    0    0 +0.0000000000e+00 +0.0000000000e+00 -5.8546849215e+02 5.9866380824e+02 1.2500000000e+02 0.0000e+00 0.0000e+00
      -15  1    3    3    0    0 +2.9914349529e+01 -5.1193710224e+01 -3.8322561197e+02 3.8778949402e+02 1.7770000000e+00 0.0000e+00 -1.0000e+00
       15  1    3    3    0    0 -3.0011455068e+01 +5.1350327067e+01 -2.0117183191e+02 2.0978752872e+02 1.7770000000e+00 0.0000e+00 -1.0000e+00
       22  1    3    3    0    0 +9.7105539217e-02 -1.5661684244e-01 -1.0710483483e+00 1.0867855748e+00 0.0000000000e+00 0.0000e+00 1.0000e+00
<mgrwt>
<rscale>  2 0.12500000E+03</rscale>
<asrwt>0</asrwt>
<pdfrwt beam="1">  1       21 0.97024361E-03 0.12500000E+03</pdfrwt>
<pdfrwt beam="2">  1       21 0.87068571E-01 0.12500000E+03</pdfrwt>
<totfact> 0.38610271E+06</totfact>
</mgrwt>
</event>
<event>
 6      0 +1.3698540e+00 1.25000000e+02 7.54677100e-03 1.12640300e-01
       21 -1    0    0  502  501 +0.0000000000e+00 +0.0000000000e+00 +8.5930423426e+00 8.5930423426e+00 0.0000000000e+00 0.0000e+00 1.0000e+00
       21 -1    0    0  501  502 -0.0000000000e+00 -0.0000000000e+00 -4.5458288744e+02 4.5458288744e+02 0.0000000000e+00 0.0000e+00 1.0000e+00
       25  2    1    2    0    0 +0.0000000000e+00 +0.0000000000e+00 -4.4598984510e+02 4.6317592979e+02 1.2500000000e+02 0.0000e+00 0.0000e+00
      -15  1    3    3    0    0 -4.6828171941e+01 -2.9578396506e+01 -1.8924505869e+02 1.9719180814e+02 1.7770000000e+00 0.0000e+00 -1.0000e+00
       15  1    3    3    0    0 +2.2948590146e+00 -2.3107681835e+00 -2.6339097239e-01 3.7192917762e+00 1.7770000000e+00 0.0000e+00 -1.0000e+00
       22  1    3    3    0    0 +4.4533312926e+01 +3.1889164689e+01 -2.5648139537e+02 2.6226482981e+02 0.0000000000e+00 0.0000e+00 -1.0000e+00
<mgrwt>
<rscale>  2 0.12500000E+03</rscale>
<asrwt>0</asrwt>
<pdfrwt beam="1">  1       21 0.12636828E-02 0.12500000E+03</pdfrwt>
<pdfrwt beam="2">  1       21 0.66850419E-01 0.12500000E+03</pdfrwt>
<totfact> 0.48193776E+06</totfact>
</mgrwt>
</event>
<event>
 6      0 +1.3698540e+00 1.25000000e+02 7.54677100e-03 1.12640300e-01
       21 -1    0    0  502  501 +0.0000000000e+00 +0.0000000000e+00 +2.1775000458e+02 2.1775000458e+02 0.0000000000e+00 0.0000e+00 1.0000e+00
       21 -1    0    0  501  502 -0.0000000000e+00 -0.0000000000e+00 -1.7939150025e+01 1.7939150025e+01 0.0000000000e+00 0.0000e+00 1.0000e+00
       25  2    1    2    0    0 +0.0000000000e+00 +0.0000000000e+00 +1.9981085455e+02 2.3568915460e+02 1.2500000000e+02 0.0000e+00 0.0000e+00
      -15  1    3    3    0    0 +1.3794875779e+01 +3.4157945345e+01 +7.0664797975e+01 7.9710320723e+01 1.7770000000e+00 0.0000e+00 -1.0000e+00
       15  1    3    3    0    0 +3.2165724430e+01 -2.3395523693e+01 +5.1268414553e+01 6.4912190048e+01 1.7770000000e+00 0.0000e+00 -1.0000e+00
       22  1    3    3    0    0 -4.5960600209e+01 -1.0762421652e+01 +7.7877642022e+01 9.1066643829e+01 0.0000000000e+00 0.0000e+00 -1.0000e+00
<mgrwt>
<rscale>  2 0.12500000E+03</rscale>
<asrwt>0</asrwt>
<pdfrwt beam="1">  1       21 0.32022058E-01 0.12500000E+03</pdfrwt>
<pdfrwt beam="2">  1       21 0.26381104E-02 0.12500000E+03</pdfrwt>
<totfact> 0.71877645E+06</totfact>
</mgrwt>
</event>
<event>
 6      0 +1.3698540e+00 1.25000000e+02 7.54677100e-03 1.12640300e-01
       21 -1    0    0  502  501 +0.0000000000e+00 +0.0000000000e+00 +4.0204288403e+01 4.0204288403e+01 0.0000000000e+00 0.0000e+00 -1.0000e+00
       21 -1    0    0  501  502 -0.0000000000e+00 -0.0000000000e+00 -9.7160033298e+01 9.7160033298e+01 0.0000000000e+00 0.0000e+00 -1.0000e+00
       25  2    1    2    0    0 +0.0000000000e+00 +0.0000000000e+00 -5.6955744895e+01 1.3736432170e+02 1.2500000000e+02 0.0000e+00 0.0000e+00
      -15  1    3    3    0    0 -4.0091282252e+00 -2.1834020818e+00 +3.9992976267e+01 4.0291887936e+01 1.7770000000e+00 0.0000e+00 -1.0000e+00
       15  1    3    3    0    0 +4.0091274595e+00 +2.1834021660e+00 -9.6948733482e+01 9.7072421422e+01 1.7770000000e+00 0.0000e+00 -1.0000e+00
       22  1    3    3    0    0 +7.6564215744e-07 -8.4262789776e-08 +1.2319550834e-05 1.2343607289e-05 0.0000000000e+00 0.0000e+00 1.0000e+00
<mgrwt>
<rscale>  2 0.12500000E+03</rscale>
<asrwt>0</asrwt>
<pdfrwt beam="1">  1       21 0.59123954E-02 0.12500000E+03</pdfrwt>
<pdfrwt beam="2">  1       21 0.14288240E-01 0.12500000E+03</pdfrwt>
<totfact> 0.86795009E+06</totfact>
</mgrwt>
</event>
<event>
 6      0 +1.3698540e+00 1.25000000e+02 7.54677100e-03 1.12640300e-01
       21 -1    0    0  502  501 +0.0000000000e+00 +0.0000000000e+00 +8.4974353711e+01 8.4974353711e+01 0.0000000000e+00 0.0000e+00 1.0000e+00
       21 -1    0    0  501  502 -0.0000000000e+00 -0.0000000000e+00 -4.5969752395e+01 4.5969752395e+01 0.0000000000e+00 0.0000e+00 1.0000e+00
       25  2    1    2    0    0 +0.0000000000e+00 +0.0000000000e+00 +3.9004601316e+01 1.3094410611e+02 1.2500000000e+02 0.0000e+00 0.0000e+00
      -15  1    3    3    0    0 +3.8836798531e+01 -4.5180340777e+01 -1.9425501004e-01 5.9604996241e+01 1.7770000000e+00 0.0000e+00 1.0000e+00
       15  1    3    3    0    0 -3.8836800983e+01 +4.5180337597e+01 +3.9198851602e+01 7.1339103666e+01 1.7770000000e+00 0.0000e+00 1.0000e+00
       22  1    3    3    0    0 +2.4511509696e-06 +3.1803986074e-06 +4.7220221584e-06 6.1984328376e-06 0.0000000000e+00 0.0000e+00 -1.0000e+00
<mgrwt>
<rscale>  2 0.12500000E+03</rscale>
<asrwt>0</asrwt>
<pdfrwt beam="1">  1       21 0.12496228E-01 0.12500000E+03</pdfrwt>
<pdfrwt beam="2">  1       21 0.67602577E-02 0.12500000E+03</pdfrwt>
<totfact> 0.87926192E+06</totfact>
</mgrwt>
</event>
<event>
 6      0 +1.3698540e+00 1.25000000e+02 7.54677100e-03 1.12640300e-01
       21 -1    0    0  502  501 +0.0000000000e+00 +0.0000000000e+00 +1.7490940082e+02 1.7490940082e+02 0.0000000000e+00 0.0000e+00 -1.0000e+00
       21 -1    0    0  501  502 -0.0000000000e+00 -0.0000000000e+00 -2.2332990575e+01 2.2332990575e+01 0.0000000000e+00 0.0000e+00 -1.0000e+00
       25  2    1    2    0    0 +0.0000000000e+00 +0.0000000000e+00 +1.5257641025e+02 1.9724239140e+02 1.2500000000e+02 0.0000e+00 0.0000e+00
      -15  1    3    3    0    0 -5.5120025784e+01 +2.4227138831e+01 +7.8193797484e+01 9.8704605730e+01 1.7770000000e+00 0.0000e+00 1.0000e+00
       15  1    3    3    0    0 +5.7172350636e+01 -2.5011298892e+01 +7.1681050169e+01 9.5055633351e+01 1.7770000000e+00 0.0000e+00 1.0000e+00
       22  1    3    3    0    0 -2.0523248519e+00 +7.8416006105e-01 +2.7015625949e+00 3.4821523162e+00 0.0000000000e+00 0.0000e+00 1.0000e+00
<mgrwt>
<rscale>  2 0.12500000E+03</rscale>
<asrwt>0</asrwt>
<pdfrwt beam="1">  1       21 0.25721970E-01 0.12500000E+03</pdfrwt>
<pdfrwt beam="2">  1       21 0.32842634E-02 0.12500000E+03</pdfrwt>
<totfact> 0.77223282E+06</totfact>
</mgrwt>
</event>
<event>
 6      0 +1.3698540e+00 1.25000000e+02 7.54677100e-03 1.12640300e-01
       21 -1    0    0  502  501 +0.0000000000e+00 +0.0000000000e+00 +6.3565519274e+02 6.3565519274e+02 0.0000000000e+00 0.0000e+00 1.0000e+00
       21 -1    0    0  501  502 -0.0000000000e+00 -0.0000000000e+00 -6.1452341530e+00 6.1452341530e+00 0.0000000000e+00 0.0000e+00 1.0000e+00
       25  2    1    2    0    0 +0.0000000000e+00 +0.0000000000e+00 +6.2950995859e+02 6.4180042690e+02 1.2500000000e+02 0.0000e+00 0.0000e+00
      -15  1    3    3    0    0 +1.8210189172e+01 +9.6878985338e+00 +3.4619229416e+01 4.0337515318e+01 1.7770000000e+00 0.0000e+00 -1.0000e+00
       15  1    3    3    0    0 -1.2245642377e+01 -4.2878167878e+00 +5.9306870934e+02 5.9321327771e+02 1.7770000000e+00 0.0000e+00 -1.0000e+00
       22  1    3    3    0    0 -5.9645467943e+00 -5.4000817460e+00 +1.8220197282e+00 8.2496337595e+00 0.0000000000e+00 0.0000e+00 -1.0000e+00
<mgrwt>
<rscale>  2 0.12500000E+03</rscale>
<asrwt>0</asrwt>
<pdfrwt beam="1">  1       21 0.93478659E-01 0.12500000E+03</pdfrwt>
<pdfrwt beam="2">  1       21 0.90371135E-03 0.12500000E+03</pdfrwt>
<totfact> 0.36009615E+06</totfact>
</mgrwt>
</event>
<event>
 6      0 +1.3698540e+00 1.25000000e+02 7.54677100e-03 1.12640300e-01
       21 -1    0    0  502  501 +0.0000000000e+00 +0.0000000000e+00 +2.3405723974e+01 2.3405723974e+01 0.0000000000e+00 0.0000e+00 -1.0000e+00
       21 -1    0    0  501  502 -0.0000000000e+00 -0.0000000000e+00 -1.6689293629e+02 1.6689293629e+02 0.0000000000e+00 0.0000e+00 -1.0000e+00
       25  2    1    2    0    0 +0.0000000000e+00 +0.0000000000e+00 -1.4348721231e+02 1.9029866026e+02 1.2500000000e+02 0.0000e+00 0.0000e+00
      -15  1    3    3    0    0 -5.3497041304e+01 -3.1223664742e+01 -8.4134171825e+01 1.0449194833e+02 1.7770000000e+00 0.0000e+00 1.0000e+00
       15  1    3    3    0    0 +5.3497041136e+01 +3.1223664650e+01 -5.9353040324e+01 8.5806711679e+01 1.7770000000e+00 0.0000e+00 1.0000e+00
       22  1    3    3    0    0 +1.6793480224e-07 +9.1999662787e-08 -1.6005974957e-07 2.4956994849e-07 0.0000000000e+00 0.0000e+00 1.0000e+00
<mgrwt>
<rscale>  2 0.12500000E+03</rscale>
<asrwt>0</asrwt>
<pdfrwt beam="1">  1       21 0.34420184E-02 0.12500000E+03</pdfrwt>
<pdfrwt beam="2">  1       21 0.24543078E-01 0.12500000E+03</pdfrwt>
<totfact> 0.78253052E+06</totfact>
</mgrwt>
</event>
<event>
 6      0 +1.3698540e+00 1.25000000e+02 7.54677100e-03 1.12640300e-01
       21 -1    0    0  502  501 +0.0000000000e+00 +0.0000000000e+00 +2.6638527838e+02 2.6638527838e+02 0.0000000000e+00 0.0000e+00 -1.0000e+00
       21 -1    0    0  501  502 -0.0000000000e+00 -0.0000000000e+00 -1.4663910948e+01 1.4663910948e+01 0.0000000000e+00 0.0000e+00 -1.0000e+00
       25  2    1    2    0    0 +0.0000000000e+00 +0.0000000000e+00 +2.5172136743e+02 2.8104918933e+02 1.2500000000e+02 0.0000e+00 0.0000e+00
      -15  1    3    3    0    0 -2.8045844305e+01 +4.3213626910e+01 +4.6397256311e+01 6.9353082525e+01 1.7770000000e+00 0.0000e+00 1.0000e+00
       15  1    3    3    0    0 +2.8046457995e+01 -4.3213690188e+01 +2.0532231242e+02 2.1169420524e+02 1.7770000000e+00 0.0000e+00 1.0000e+00
       22  1    3    3    0    0 -6.1368978052e-04 +6.3278066599e-05 +1.7986773104e-03 1.9015413031e-03 0.0000000000e+00 0.0000e+00 1.0000e+00
<mgrwt>
<rscale>  2 0.12500000E+03</rscale>
<asrwt>0</asrwt>
<pdfrwt beam="1">  1       21 0.39174303E-01 0.12500000E+03</pdfrwt>
<pdfrwt beam="2">  1       21 0.21564577E-02 0.12500000E+03</pdfrwt>
<totfact> 0.66166344E+06</totfact>
</mgrwt>
</event>
<event>
 6      0 +1.3698540e+00 1.25000000e+02 7.54677100e-03 1.12640300e-01
       21 -1    0    0  502  501 +0.0000000000e+00 +0.0000000000e+00 +4.4758404189e+02 4.4758404189e+02 0.0000000000e+00 0.0000e+00 -1.0000e+00
       21 -1    0    0  501  502 -0.0000000000e+00 -0.0000000000e+00 -8.7274112444e+00 8.7274112444e+00 0.0000000000e+00 0.0000e+00 -1.0000e+00
       25  2    1    2    0    0 +0.0000000000e+00 +0.0000000000e+00 +4.3885663064e+02 4.5631145313e+02 1.2500000000e+02 0.0000e+00 0.0000e+00
      -15  1    3    3    0    0 -6.1061027506e+01 +1.2173514992e+01 +2.3820216861e+02 2.4621144248e+02 1.7770000000e+00 0.0000e+00 -1.0000e+00
       15  1    3    3    0    0 +6.1061027524e+01 -1.2173514411e+01 +2.0065446081e+02 2.1010000930e+02 1.7770000000e+00 0.0000e+00 -1.0000e+00
       22  1    3    3    0    0 -1.8555540588e-08 -5.8182766155e-07 +1.2045310469e-06 1.3378201594e-06 0.0000000000e+00 0.0000e+00 -1.0000e+00
<mgrwt>
<rscale>  2 0.12500000E+03</rscale>
<asrwt>0</asrwt>
<pdfrwt beam="1">  1       21 0.65821167E-01 0.12500000E+03</pdfrwt>
<pdfrwt beam="2">  1       21 0.12834431E-02 0.12500000E+03</pdfrwt>
<totfact> 0.48753910E+06</totfact>
</mgrwt>
</event>
<event>
 6      0 +1.3698540e+00 1.25000000e+02 7.54677100e-03 1.12640300e-01
       21 -1    0    0  502  501 +0.0000000000e+00 +0.0000000000e+00 +7.2554036243e+02 7.2554036243e+02 0.0000000000e+00 0.0000e+00 -1.0000e+00
       21 -1    0    0  501  502 -0.0000000000e+00 -0.0000000000e+00 -5.3839182522e+00 5.3839182522e+00 0.0000000000e+00 0.0000e+00 -1.0000e+00
       25  2    1    2    0    0 +0.0000000000e+00 +0.0000000000e+00 +7.2015644417e+02 7.3092428068e+02 1.2500000000e+02 0.0000e+00 0.0000e+00
      -15  1    3    3    0    0 -2.9800831137e+01 -5.4517508672e+01 +3.2180487227e+02 3.2775262292e+02 1.7770000000e+00 0.0000e+00 -1.0000e+00
       15  1    3    3    0    0 +2.9800600732e+01 +5.4516680590e+01 +3.9834702838e+02 4.0316703364e+02 1.7770000000e+00 0.0000e+00 -1.0000e+00
       22  1    3    3    0    0 +2.3040495147e-04 +8.2808186087e-04 +4.5433320547e-03 4.6239238931e-03 0.0000000000e+00 0.0000e+00 -1.0000e+00
<mgrwt>
<rscale>  2 0.12500000E+03</rscale>
<asrwt>0</asrwt>
<pdfrwt beam="1">  1       21 0.10669704E+00 0.12500000E+03</pdfrwt>
<pdfrwt beam="2">  1       21 0.79175318E-03 0.12500000E+03</pdfrwt>
<totfact> 0.31390131E+06</totfact>
</mgrwt>
</event>
<event>
 6      0 +1.3698540e+00 1.25000000e+02 7.54677100e-03 1.12640300e-01
       21 -1    0    0  502  501 +0.0000000000e+00 +0.0000000000e+00 +6.7111645969e+00 6.7111645969e+00 0.0000000000e+00 0.0000e+00 -1.0000e+00
       21 -1    0    0  501  502 -0.0000000000e+00 -0.0000000000e+00 -5.8205248040e+02 5.8205248040e+02 0.0000000000e+00 0.0000e+00 -1.0000e+00
       25  2    1    2    0    0 +0.0000000000e+00 +0.0000000000e+00 -5.7534131580e+02 5.8876364499e+02 1.2500000000e+02 0.0000e+00 0.0000e+00
      -15  1    3    3    0    0 +5.3285624584e+01 +2.9737718862e+01 -2.3020025515e+02 2.3815752121e+02 1.7770000000e+00 0.0000e+00 1.0000e+00
       15  1    3    3    0    0 -5.2340032754e+01 -2.8325096664e+01 -3.4043899917e+02 3.4560622103e+02 1.7770000000e+00 0.0000e+00 1.0000e+00
       22  1    3    3    0    0 -9.4559183006e-01 -1.4126221982e+00 -4.7020615633e+00 4.9999028319e+00 0.0000000000e+00 0.0000e+00 -1.0000e+00
<mgrwt>
<rscale>  2 0.12500000E+03</rscale>
<asrwt>0</asrwt>
<pdfrwt beam="1">  1       21 0.98693583E-03 0.12500000E+03</pdfrwt>
<pdfrwt beam="2">  1       21 0.85595965E-01 0.12500000E+03</pdfrwt>
<totfact> 0.39245036E+06</totfact>
</mgrwt>
</event>
<event>
 6      0 +1.3698540e+00 1.25000000e+02 7.54677100e-03 1.12640300e-01
       21 -1    0    0  502  501 +0.0000000000e+00 +0.0000000000e+00 +7.0415869821e+01 7.0415869821e+01 0.0000000000e+00 0.0000e+00 1.0000e+00
       21 -1    0    0  501  502 -0.0000000000e+00 -0.0000000000e+00 -5.5474000533e+01 5.5474000533e+01 0.0000000000e+00 0.0000e+00 1.0000e+00
       25  2    1    2    0    0 +0.0000000000e+00 +0.0000000000e+00 +1.4941869287e+01 1.2588987035e+02 1.2500000000e+02 0.0000e+00 0.0000e+00
      -15  1    3    3    0    0 +8.5886084695e+00 +2.8131412981e+00 +1.2894534866e+01 1.5846284038e+01 1.7770000000e+00 0.0000e+00 -1.0000e+00
       15  1    3    3    0    0 +3.2301295990e+01 +2.9646864750e+01 +2.7681789950e+01 5.1882073359e+01 1.7770000000e+00 0.0000e+00 -1.0000e+00
       22  1    3    3    0    0 -4.0889904459e+01 -3.2460006048e+01 -2.5634455528e+01 5.8161512958e+01 0.0000000000e+00 0.0000e+00 -1.0000e+00
<mgrwt>
<rscale>  2 0.12500000E+03</rscale>
<asrwt>0</asrwt>
<pdfrwt beam="1">  1       21 0.10355275E-01 0.12500000E+03</pdfrwt>
<pdfrwt beam="2">  1       21 0.81579412E-02 0.12500000E+03</pdfrwt>
<totfact> 0.88831729E+06</totfact>
</mgrwt>
</event>
<event>
 6      0 +1.3698540e+00 1.25000000e+02 7.54677100e-03 1.12640300e-01
       21 -1    0    0  502  501 +0.0000000000e+00 +0.0000000000e+00 +8.0171194808e+00 8.0171194808e+00 0.0000000000e+00 0.0000e+00 1.0000e+00
       21 -1    0    0  501  502 -0.0000000000e+00 -0.0000000000e+00 -4.8723859104e+02 4.8723859104e+02 0.0000000000e+00 0.0000e+00 1.0000e+00
       25  2    1    2    0    0 +0.0000000000e+00 +0.0000000000e+00 -4.7922147156e+02 4.9525571052e+02 1.2500000000e+02 0.0000e+00 0.0000e+00
      -15  1    3    3    0    0 +2.8228149994e+01 +5.1671611604e+01 -3.2229889790e+02 3.2763778966e+02 1.7770000000e+00 0.0000e+00 1.0000e+00
       15  1    3    3    0    0 -2.8187039522e+01 -5.1653877025e+01 -1.5679537133e+02 1.6748306902e+02 1.7770000000e+00 0.0000e+00 1.0000e+00
       22  1    3    3    0    0 -4.1110472383e-02 -1.7734578308e-02 -1.2720235217e-01 1.3485186170e-01 0.0000000000e+00 0.0000e+00 -1.0000e+00
<mgrwt>
<rscale>  2 0.12500000E+03</rscale>
<asrwt>0</asrwt>
<pdfrwt beam="1">  1       21 0.11789881E-02 0.12500000E+03</pdfrwt>
<pdfrwt beam="2">  1       21 0.71652737E-01 0.12500000E+03</pdfrwt>
<totfact> 0.45680917E+06</totfact>
</mgrwt>
</event>
<event>
 6      0 +1.3698540e+00 1.25000000e+02 7.54677100e-03 1.12640300e-01
       21 -1    0    0  502  501 +0.0000000000e+00 +0.0000000000e+00 +2.9359291627e+02 2.9359291627e+02 0.0000000000e+00 0.0000e+00 1.0000e+00
       21 -1    0    0  501  502 -0.0000000000e+00 -0.0000000000e+00 -1.3304987224e+01 1.3304987224e+01 0.0000000000e+00 0.0000e+00 1.0000e+00
       25  2    1    2    0    0 +0.0000000000e+00 +0.0000000000e+00 +2.8028792904e+02 3.0689790349e+02 1.2500000000e+02 0.0000e+00 0.0000e+00
      -15  1    3    3    0    0 -2.1690563370e+01 -1.0901641521e+01 +1.9437054138e+02 1.9588872202e+02 1.7770000000e+00 0.0000e+00 -1.0000e+00
       15  1    3    3    0    0 -3.4066652277e+00 +2.6507766686e+01 +7.4770392601e+01 7.9423147767e+01 1.7770000000e+00 0.0000e+00 -1.0000e+00
       22  1    3    3    0    0 +2.5097228598e+01 -1.5606125165e+01 +1.1146995046e+01 3.1586033693e+01 0.0000000000e+00 0.0000e+00 -1.0000e+00
<mgrwt>
<rscale>  2 0.12500000E+03</rscale>
<asrwt>0</asrwt>
<pdfrwt beam="1">  1       21 0.43175425E-01 0.12500000E+03</pdfrwt>
<pdfrwt beam="2">  1       21 0.19566160E-02 0.12500000E+03</pdfrwt>
<totfact> 0.63164055E+06</totfact>
</mgrwt>
</event>
<event>
 6      0 +1.3698540e+00 1.25000000e+02 7.54677100e-03 1.12640300e-01
       21 -1    0    0  502  501 +0.0000000000e+00 +0.0000000000e+00 +2.2942869523e+02 2.2942869523e+02 0.0000000000e+00 0.0000e+00 1.0000e+00
       21 -1    0    0  501  502 -0.0000000000e+00 -0.0000000000e+00 -1.7025987077e+01 1.7025987077e+01 0.0000000000e+00 0.0000e+00 1.0000e+00
       25  2    1    2    0    0 +0.0000000000e+00 +0.0000000000e+00 +2.1240270815e+02 2.4645468230e+02 1.2500000000e+02 0.0000e+00 0.0000e+00
      -15  1    3    3    0    0 +1.2766190871e+01 +3.2857199194e+01 +4.2877237478e+01 5.5535451659e+01 1.7770000000e+00 0.0000e+00 -1.0000e+00
       15  1    3    3    0    0 -4.5080744955e+01 -7.9527395122e+00 +1.0526767135e+02 1.1480400686e+02 1.7770000000e+00 0.0000e+00 -1.0000e+00
       22  1    3    3    0    0 +3.2314554084e+01 -2.4904459681e+01 +6.4257799340e+01 7.6115223797e+01 0.0000000000e+00 0.0000e+00 -1.0000e+00
<mgrwt>
<rscale>  2 0.12500000E+03</rscale>
<asrwt>0</asrwt>
<pdfrwt beam="1">  1       21 0.33739512E-01 0.12500000E+03</pdfrwt>
<pdfrwt beam="2">  1       21 0.25038218E-02 0.12500000E+03</pdfrwt>
<totfact> 0.70461129E+06</totfact>
</mgrwt>
</event>
<event>
 6      0 +1.3698540e+00 1.25000000e+02 7.54677100e-03 1.12640300e-01
       21 -1    0    0  502  501 +0.0000000000e+00 +0.0000000000e+00 +3.1437057555e+02 3.1437057555e+02 0.0000000000e+00 0.0000e+00 -1.0000e+00
       21 -1    0    0  501  502 -0.0000000000e+00 -0.0000000000e+00 -1.2425622192e+01 1.2425622192e+01 0.0000000000e+00 0.0000e+00 -1.0000e+00
       25  2    1    2    0    0 +0.0000000000e+00 +0.0000000000e+00 +3.0194495335e+02 3.2679619774e+02 1.2500000000e+02 0.0000e+00 0.0000e+00
      -15  1    3    3    0    0 +2.1307930418e+01 -3.2496477747e+01 +2.3039272901e+02 2.3365362457e+02 1.7770000000e+00 0.0000e+00 -1.0000e+00
       15  1    3    3    0    0 -5.6595759930e+00 +3.1730411484e+01 +7.0382430810e+01 7.7431867529e+01 1.7770000000e+00 0.0000e+00 -1.0000e+00
       22  1    3    3    0    0 -1.5648354425e+01 +7.6606626395e-01 +1.1697934957e+00 1.5710705604e+01 0.0000000000e+00 0.0000e+00 -1.0000e+00
<mgrwt>
<rscale>  2 0.12500000E+03</rscale>
<asrwt>0</asrwt>
<pdfrwt beam="1">  1       21 0.46230962E-01 0.12500000E+03</pdfrwt>
<pdfrwt beam="2">  1       21 0.18272976E-02 0.12500000E+03</pdfrwt>
<totfact> 0.60967533E+06</totfact>
</mgrwt>
</event>
<event>
 6      0 +1.3698540e+00 1.25000000e+02 7.54677100e-03 1.12640300e-01
       21 -1    0    0  502  501 +0.0000000000e+00 +0.0000000000e+00 +4.9663358914e+00 4.9663358914e+00 0.0000000000e+00 0.0000e+00 1.0000e+00
       21 -1    0    0  501  502 -0.0000000000e+00 -0.0000000000e+00 -7.8654567178e+02 7.8654567178e+02 0.0000000000e+00 0.0000e+00 1.0000e+00
       25  2    1    2    0    0 +0.0000000000e+00 +0.0000000000e+00 -7.8157933589e+02 7.9151200768e+02 1.2500000000e+02 0.0000e+00 0.0000e+00
      -15  1    3    3    0    0 -1.6537706120e+01 -4.4057704373e+00 -1.5603065155e+01 2.3227567847e+01 1.7770000000e+00 0.0000e+00 -1.0000e+00
       15  1    3    3    0    0 +5.1975411098e+00 -2.5826587873e+01 -4.0870356069e+02 4.0955559491e+02 1.7770000000e+00 0.0000e+00 -1.0000e+00
       22  1    3    3    0    0 +1.1340165011e+01 +3.0232358310e+01 -3.5727270976e+02 3.5872884463e+02 0.0000000000e+00 0.0000e+00 -1.0000e+00
<mgrwt>
<rscale>  2 0.12500000E+03</rscale>
<asrwt>0</asrwt>
<pdfrwt beam="1">  1       21 0.73034340E-03 0.12500000E+03</pdfrwt>
<pdfrwt beam="2">  1       21 0.11566850E+00 0.12500000E+03</pdfrwt>
<totfact> 0.28644280E+06</totfact>
</mgrwt>
</event>
<event>
 6      0 +1.3698540e+00 1.25000000e+02 7.54677100e-03 1.12640300e-01
       21 -1    0    0  502  501 +0.0000000000e+00 +0.0000000000e+00 +3.5385838277e+02 3.5385838277e+02 0.0000000000e+00 0.0000e+00 1.0000e+00
       21 -1    0    0  501  502 -0.0000000000e+00 -0.0000000000e+00 -1.1039020665e+01 1.1039020665e+01 0.0000000000e+00 0.0000e+00 1.0000e+00
       25  2    1    2    0    0 +0.0000000000e+00 +0.0000000000e+00 +3.4281936211e+02 3.6489740344e+02 1.2500000000e+02 0.0000e+00 0.0000e+00
      -15  1    3    3    0    0 +2.0660819195e+01 +2.0200304204e+01 +8.0552269729e+01 8.5596422982e+01 1.7770000000e+00 0.0000e+00 -1.0000e+00
       15  1    3    3    0    0 -3.1211838725e+01 -3.1775811322e+01 +2.5961665553e+02 2.6341572964e+02 1.7770000000e+00 0.0000e+00 -1.0000e+00
       22  1    3    3    0    0 +1.0551019530e+01 +1.1575507118e+01 +2.6504368469e+00 1.5885250819e+01 0.0000000000e+00 0.0000e+00 -1.0000e+00
<mgrwt>
<rscale>  2 0.12500000E+03</rscale>
<asrwt>0</asrwt>
<pdfrwt beam="1">  1       21 0.52037990E-01 0.12500000E+03</pdfrwt>
<pdfrwt beam="2">  1       21 0.16233856E-02 0.12500000E+03</pdfrwt>
<totfact> 0.57025258E+06</totfact>
</mgrwt>
</event>
<event>
 6      0 +1.3698540e+00 1.25000000e+02 7.54677100e-03 1.12640300e-01
       21 -1    0    0  502  501 +0.0000000000e+00 +0.0000000000e+00 +1.8465296985e+01 1.8465296985e+01 0.0000000000e+00 0.0000e+00 -1.0000e+00
       21 -1    0    0  501  502 -0.0000000000e+00 -0.0000000000e+00 -2.1154547382e+02 2.1154547382e+02 0.0000000000e+00 0.0000e+00 -1.0000e+00
       25  2    1    2    0    0 +0.0000000000e+00 +0.0000000000e+00 -1.9308017684e+02 2.3001077081e+02 1.2500000000e+02 0.0000e+00 0.0000e+00
      -15  1    3    3    0    0 +1.2242117038e+01 -1.6427873531e+01 -4.7206549394e+01 5.1491363285e+01 1.7770000000e+00 0.0000e+00 -1.0000e+00
       15  1    3    3    0    0 -3.8066244014e+01 -9.3288582165e-01 -1.0392048666e+01 3.9510272256e+01 1.7770000000e+00 0.0000e+00 -1.0000e+00
       22  1    3    3    0    0 +2.5824126975e+01 +1.7360759352e+01 -1.3548157878e+02 1.3900913527e+02 0.0000000000e+00 0.0000e+00 -1.0000e+00
<mgrwt>
<rscale>  2 0.12500000E+03</rscale>
<asrwt>0</asrwt>
<pdfrwt beam="1">  1       21 0.27154848E-02 0.12500000E+03</pdfrwt>
<pdfrwt beam="2">  1       21 0.31109629E-01 0.12500000E+03</pdfrwt>
<totfact> 0.72636019E+06</totfact>
</mgrwt>
</event>
<event>
 6      0 +1.3698540e+00 1.25000000e+02 7.54677100e-03 1.12640300e-01
       21 -1    0    0  502  501 +0.0000000000e+00 +0.0000000000e+00 +3.8031204234e+01 3.8031204234e+01 0.0000000000e+00 0.0000e+00 -1.0000e+00
       21 -1    0    0  501  502 -0.0000000000e+00 -0.0000000000e+00 -1.0271170947e+02 1.0271170947e+02 0.0000000000e+00 0.0000e+00 -1.0000e+00
       25  2    1    2    0    0 +0.0000000000e+00 +0.0000000000e+00 -6.4680505233e+01 1.4074291370e+02 1.2500000000e+02 0.0000e+00 0.0000e+00
      -15  1    3    3    0    0 -4.5841858269e+00 -7.4587826306e+00 +1.6683138391e+01 1.8924403125e+01 1.7770000000e+00 0.0000e+00 -1.0000e+00
       15  1    3    3    0    0 -2.5217417987e+01 +2.5873369011e+01 -3.3838784584e+00 3.6331222885e+01 1.7770000000e+00 0.0000e+00 -1.0000e+00
       22  1    3    3    0    0 +2.9801603814e+01 -1.8414586381e+01 -7.7979765167e+01 8.5487287692e+01 0.0000000000e+00 0.0000e+00 -1.0000e+00
<mgrwt>
<rscale>  2 0.12500000E+03</rscale>
<asrwt>0</asrwt>
<pdfrwt beam="1">  1       21 0.55928242E-02 0.12500000E+03</pdfrwt>
<pdfrwt beam="2">  1       21 0.15104663E-01 0.12500000E+03</pdfrwt>
<totfact> 0.86211769E+06</totfact>
</mgrwt>
</event>
<event>
 6      0 +1.3698540e+00 1.25000000e+02 7.54677100e-03 1.12640300e-01
       21 -1    0    0  502  501 +0.0000000000e+00 +0.0000000000e+00 +6.1754157949e+02 6.1754157949e+02 0.0000000000e+00 0.0000e+00 -1.0000e+00
       21 -1    0    0  501  502 -0.0000000000e+00 -0.0000000000e+00 -6.3254850033e+00 6.3254850033e+00 0.0000000000e+00 0.0000e+00 -1.0000e+00
       25  2    1    2    0    0 +0.0000000000e+00 +0.0000000000e+00 +6.1121609449e+02 6.2386706449e+02 1.2500000000e+02 0.0000e+00 0.0000e+00
      -15  1    3    3    0    0 +2.1135153366e+01 -4.7822726443e+01 +4.7627934527e+02 4.7914390357e+02 1.7770000000e+00 0.0000e+00 -1.0000e+00
       15  1    3    3    0    0 -2.1135038784e+01 +4.7822570978e+01 +1.3493606502e+02 1.4472244999e+02 1.7770000000e+00 0.0000e+00 -1.0000e+00
       22  1    3    3    0    0 -1.1458183919e-04 +1.5546443949e-04 +6.8436437937e-04 7.1109267580e-04 0.0000000000e+00 0.0000e+00 1.0000e+00
<mgrwt>
<rscale>  2 0.12500000E+03</rscale>
<asrwt>0</asrwt>
<pdfrwt beam="1">  1       21 0.90814897E-01 0.12500000E+03</pdfrwt>
<pdfrwt beam="2">  1       21 0.93021881E-03 0.12500000E+03</pdfrwt>
<totfact> 0.37043944E+06</totfact>
</mgrwt>
</event>
<event>
 6      0 +1.3698540e+00 1.25000000e+02 7.54677100e-03 1.12640300e-01
       21 -1    0    0  502  501 +0.0000000000e+00 +0.0000000000e+00 +2.1496131317e+02 2.1496131317e+02 0.0000000000e+00 0.0000e+00 1.0000e+00
       21 -1    0    0  501  502 -0.0000000000e+00 -0.0000000000e+00 -1.8171874476e+01 1.8171874476e+01 0.0000000000e+00 0.0000e+00 1.0000e+00
       25  2    1    2    0    0 +0.0000000000e+00 +0.0000000000e+00 +1.9678943869e+02 2.3313318764e+02 1.2500000000e+02 0.0000e+00 0.0000e+00
      -15  1    3    3    0    0 +5.0124212169e+01 +3.5069363820e+00 +6.9422715477e+01 8.5717013489e+01 1.7770000000e+00 0.0000e+00 -1.0000e+00
       15  1    3    3    0    0 -1.7421526475e+01 +2.4653647950e+01 +6.3533616612e+01 7.0363272457e+01 1.7770000000e+00 0.0000e+00 -1.0000e+00
       22  1    3    3    0    0 -3.2702685693e+01 -2.8160584332e+01 +6.3833106606e+01 7.7052901700e+01 0.0000000000e+00 0.0000e+00 -1.0000e+00
<mgrwt>
<rscale>  2 0.12500000E+03</rscale>
<asrwt>0</asrwt>
<pdfrwt beam="1">  1       21 0.31611956E-01 0.12500000E+03</pdfrwt>
<pdfrwt beam="2">  1       21 0.26723346E-02 0.12500000E+03</pdfrwt>
<totfact> 0.72218109E+06</totfact>
</mgrwt>
</event>
<event>
 6      0 +1.3698540e+00 1.25000000e+02 7.54677100e-03 1.12640300e-01
       21 -1    0    0  502  501 +0.0000000000e+00 +0.0000000000e+00 +1.3247392634e+02 1.3247392634e+02 0.0000000000e+00 0.0000e+00 1.0000e+00
       21 -1    0    0  501  502 -0.0000000000e+00 -0.0000000000e+00 -2.9486934585e+01 2.9486934585e+01 0.0000000000e+00 0.0000e+00 1.0000e+00
       25  2    1    2    0    0 +0.0000000000e+00 +0.0000000000e+00 +1.0298699175e+02 1.6196086092e+02 1.2500000000e+02 0.0000e+00 0.0000e+00
      -15  1    3    3    0    0 -1.1094535396e+01 +2.4087805373e+01 +5.0840437630e+01 5.7369145983e+01 1.7770000000e+00 0.0000e+00 -1.0000e+00
       15  1    3    3    0    0 +4.7669846682e+01 -2.1008422416e+01 +4.0736963668e+01 6.6154561694e+01 1.7770000000e+00 0.0000e+00 -1.0000e+00
       22  1    3    3    0    0 -3.6575311286e+01 -3.0793829575e+00 +1.1409590450e+01 3.8437153241e+01 0.0000000000e+00 0.0000e+00 -1.0000e+00
<mgrwt>
<rscale>  2 0.12500000E+03</rscale>
<asrwt>0</asrwt>
<pdfrwt beam="1">  1       21 0.19481460E-01 0.12500000E+03</pdfrwt>
<pdfrwt beam="2">  1       21 0.43363139E-02 0.12500000E+03</pdfrwt>
<totfact> 0.82659654E+06</totfact>
</mgrwt>
</event>
<event>
 6      0 +1.3698540e+00 1.25000000e+02 7.54677100e-03 1.12640300e-01
       21 -1    0    0  502  501 +0.0000000000e+00 +0.0000000000e+00 +5.6251935853e+01 5.6251935853e+01 0.0000000000e+00 0.0000e+00 -1.0000e+00
       21 -1    0    0  501  502 -0.0000000000e+00 -0.0000000000e+00 -6.9442054585e+01 6.9442054585e+01 0.0000000000e+00 0.0000e+00 -1.0000e+00
       25  2    1    2    0    0 +0.0000000000e+00 +0.0000000000e+00 -1.3190118733e+01 1.2569399044e+02 1.2500000000e+02 0.0000e+00 0.0000e+00
      -15  1    3    3    0    0 +3.8395330151e+01 -4.9670812061e+00 +3.6864524150e+01 5.3488542165e+01 1.7770000000e+00 0.0000e+00 -1.0000e+00
       15  1    3    3    0    0 -3.1290951657e+01 +1.5282747768e+01 -2.1347361714e+01 4.0884637898e+01 1.7770000000e+00 0.0000e+00 -1.0000e+00
       22  1    3    3    0    0 -7.1043784932e+00 -1.0315666562e+01 -2.8707281169e+01 3.1320810375e+01 0.0000000000e+00 0.0000e+00 -1.0000e+00
<mgrwt>
<rscale>  2 0.12500000E+03</rscale>
<asrwt>0</asrwt>
<pdfrwt beam="1">  1       21 0.82723435E-02 0.12500000E+03</pdfrwt>
<pdfrwt beam="2">  1       21 0.10212067E-01 0.12500000E+03</pdfrwt>
<totfact> 0.88867515E+06</totfact>
</mgrwt>
</event>
<event>
 6      0 +1.3698540e+00 1.25000000e+02 7.54677100e-03 1.12640300e-01
       21 -1    0    0  502  501 +0.0000000000e+00 +0.0000000000e+00 +7.5919515643e+01 7.5919515643e+01 0.0000000000e+00 0.0000e+00 1.0000e+00
       21 -1    0    0  501  502 -0.0000000000e+00 -0.0000000000e+00 -5.1452514770e+01 5.1452514770e+01 0.0000000000e+00 0.0000e+00 1.0000e+00
       25  2    1    2    0    0 +0.0000000000e+00 +0.0000000000e+00 +2.4467000873e+01 1.2737203041e+02 1.2500000000e+02 0.0000e+00 0.0000e+00
      -15  1    3    3    0    0 +5.6111680001e+01 -1.4147008700e+01 -1.1703479769e+01 5.9065960210e+01 1.7770000000e+00 0.0000e+00 1.0000e+00
       15  1    3    3    0    0 -5.6011563386e+01 +1.4221886900e+01 +3.6117458927e+01 6.8170271147e+01 1.7770000000e+00 0.0000e+00 1.0000e+00
       22  1    3    3    0    0 -1.0011661580e-01 -7.4878200506e-02 +5.3021716012e-02 1.3579905758e-01 0.0000000000e+00 0.0000e+00 1.0000e+00
<mgrwt>
<rscale>  2 0.12500000E+03</rscale>
<asrwt>0</asrwt>
<pdfrwt beam="1">  1       21 0.11164635E-01 0.12500000E+03</pdfrwt>
<pdfrwt beam="2">  1       21 0.75665463E-02 0.12500000E+03</pdfrwt>
<totfact> 0.88567931E+06</totfact>
</mgrwt>
</event>
<event>
 6      0 +1.3698540e+00 1.25000000e+02 7.54677100e-03 1.12640300e-01
       21 -1    0    0  502  501 +0.0000000000e+00 +0.0000000000e+00 +3.4120633182e+02 3.4120633182e+02 0.0000000000e+00 0.0000e+00 1.0000e+00
       21 -1    0    0  501  502 -0.0000000000e+00 -0.0000000000e+00 -1.1448351439e+01 1.1448351439e+01 0.0000000000e+00 0.0000e+00 1.0000e+00
       25  2    1    2    0    0 +0.0000000000e+00 +0.0000000000e+00 +3.2975798038e+02 3.5265468326e+02 1.2500000000e+02 0.0000e+00 0.0000e+00
      -15  1    3    3    0    0 +3.5475484234e+01 +1.5335054753e+01 +3.9378596111e+01 5.5204215841e+01 1.7770000000e+00 0.0000e+00 -1.0000e+00
       15  1    3    3    0    0 -4.2613170471e+00 -2.2602377352e+01 +5.1500352552e+01 5.6431111338e+01 1.7770000000e+00 0.0000e+00 -1.0000e+00
       22  1    3    3    0    0 -3.1214167187e+01 +7.2673225989e+00 +2.3887903171e+02 2.4101935607e+02 0.0000000000e+00 0.0000e+00 -1.0000e+00
<mgrwt>
<rscale>  2 0.12500000E+03</rscale>
<asrwt>0</asrwt>
<pdfrwt beam="1">  1       21 0.50177395E-01 0.12500000E+03</pdfrwt>
<pdfrwt beam="2">  1       21 0.16835813E-02 0.12500000E+03</pdfrwt>
<totfact> 0.58257735E+06</totfact>
</mgrwt>
</event>
<event>
 6      0 +1.3698540e+00 1.25000000e+02 7.54677100e-03 1.12640300e-01
       21 -1    0    0  502  501 +0.0000000000e+00 +0.0000000000e+00 +1.1646174426e+02 1.1646174426e+02 0.0000000000e+00 0.0000e+00 1.0000e+00
       21 -1    0    0  501  502 -0.0000000000e+00 -0.0000000000e+00 -3.3541056978e+01 3.3541056978e+01 0.0000000000e+00 0.0000e+00 1.0000e+00
       25  2    1    2    0    0 +0.0000000000e+00 +0.0000000000e+00 +8.2920687282e+01 1.5000280124e+02 1.2500000000e+02 0.0000e+00 0.0000e+00
      -15  1    3    3    0    0 -1.2795898210e+01 -1.7927740671e+01 +6.6676151985e+00 2.3081458317e+01 1.7770000000e+00 0.0000e+00 -1.0000e+00
       15  1    3    3    0    0 -3.5650713305e+01 +3.4933843972e+01 +4.1295202964e+01 6.4805851053e+01 1.7770000000e+00 0.0000e+00 -1.0000e+00
       22  1    3    3    0    0 +4.8446611515e+01 -1.7006103301e+01 +3.4957869118e+01 6.2115491868e+01 0.0000000000e+00 0.0000e+00 -1.0000e+00
<mgrwt>
<rscale>  2 0.12500000E+03</rscale>
<asrwt>0</asrwt>
<pdfrwt beam="1">  1       21 0.17126727E-01 0.12500000E+03</pdfrwt>
<pdfrwt beam="2">  1       21 0.49325084E-02 0.12500000E+03</pdfrwt>
<totfact> 0.84624963E+06</totfact>
</mgrwt>
</event>
<event>
 6      0 +1.3698540e+00 1.25000000e+02 7.54677100e-03 1.12640300e-01
       21 -1    0    0  502  501 +0.0000000000e+00 +0.0000000000e+00 +1.5629437634e+01 1.5629437634e+01 0.0000000000e+00 0.0000e+00 -1.0000e+00
       21 -1    0    0  501  502 -0.0000000000e+00 -0.0000000000e+00 -2.4992901801e+02 2.4992901801e+02 0.0000000000e+00 0.0000e+00 -1.0000e+00
       25  2    1    2    0    0 +0.0000000000e+00 +0.0000000000e+00 -2.3429958037e+02 2.6555845564e+02 1.2500000000e+02 0.0000e+00 0.0000e+00
      -15  1    3    3    0    0 +1.1155734924e+00 +2.5253678484e+01 -1.0602039808e+01 2.7469141928e+01 1.7770000000e+00 0.0000e+00 -1.0000e+00
       15  1    3    3    0    0 +1.7331509883e+01 +2.2493452848e+01 -1.0581406396e+02 1.0957239851e+02 1.7770000000e+00 0.0000e+00 -1.0000e+00
       22  1    3    3    0    0 -1.8447083376e+01 -4.7747131332e+01 -1.1788347660e+02 1.2851691520e+02 0.0000000000e+00 0.0000e+00 -1.0000e+00
<mgrwt>
<rscale>  2 0.12500000E+03</rscale>
<asrwt>0</asrwt>
<pdfrwt beam="1">  1       21 0.22984469E-02 0.12500000E+03</pdfrwt>
<pdfrwt beam="2">  1       21 0.36754264E-01 0.12500000E+03</pdfrwt>
<totfact> 0.68043665E+06</totfact>
</mgrwt>
</event>
<event>
 6      0 +1.3698540e+00 1.25000000e+02 7.54677100e-03 1.12640300e-01
       21 -1    0    0  502  501 +0.0000000000e+00 +0.0000000000e+00 +2.2094412950e+01 2.2094412950e+01 0.0000000000e+00 0.0000e+00 1.0000e+00
       21 -1    0    0  501  502 -0.0000000000e+00 -0.0000000000e+00 -1.7679808958e+02 1.7679808958e+02 0.0000000000e+00 0.0000e+00 1.0000e+00
       25  2    1    2    0    0 +0.0000000000e+00 +0.0000000000e+00 -1.5470367663e+02 1.9889250253e+02 1.2500000000e+02 0.0000e+00 0.0000e+00
      -15  1    3    3    0    0 +5.5888722256e+01 +5.7931432494e+00 -1.2073755220e+02 1.3318342249e+02 1.7770000000e+00 0.0000e+00 1.0000e+00
       15  1    3    3    0    0 -5.5865654465e+01 -5.8365069234e+00 -3.3953125520e+01 6.5658271554e+01 1.7770000000e+00 0.0000e+00 1.0000e+00
       22  1    3    3    0    0 -2.3067790716e-02 +4.3363674088e-02 -1.2998908284e-02 5.0808491569e-02 0.0000000000e+00 0.0000e+00 -1.0000e+00
<mgrwt>
<rscale>  2 0.12500000E+03</rscale>
<asrwt>0</asrwt>
<pdfrwt beam="1">  1       21 0.32491784E-02 0.12500000E+03</pdfrwt>
<pdfrwt beam="2">  1       21 0.25999719E-01 0.12500000E+03</pdfrwt>
<totfact> 0.76980801E+06</totfact>
</mgrwt>
</event>
<event>
 6      0 +1.3698540e+00 1.25000000e+02 7.54677100e-03 1.12640300e-01
       21 -1    0    0  502  501 +0.0000000000e+00 +0.0000000000e+00 +3.7757870706e+01 3.7757870706e+01 0.0000000000e+00 0.0000e+00 1.0000e+00
       21 -1    0    0  501  502 -0.0000000000e+00 -0.0000000000e+00 -1.0345525124e+02 1.0345525124e+02 0.0000000000e+00 0.0000e+00 1.0000e+00
       25  2    1    2    0    0 +0.0000000000e+00 +0.0000000000e+00 -6.5697380530e+01 1.4121312194e+02 1.2500000000e+02 0.0000e+00 0.0000e+00
      -15  1    3    3    0    0 +7.2346738252e-01 -2.4322311467e+00 +1.4201243038e+01 1.4535205062e+01 1.7770000000e+00 0.0000e+00 -1.0000e+00
       15  1    3    3    0    0 -3.8080940925e+01 +7.1520921182e+00 -4.8617936807e-01 3.8790521816e+01 1.7770000000e+00 0.0000e+00 -1.0000e+00
       22  1    3    3    0    0 +3.7357473543e+01 -4.7198609715e+00 -7.9412444200e+01 8.7887395062e+01 0.0000000000e+00 0.0000e+00 -1.0000e+00
<mgrwt>
<rscale>  2 0.12500000E+03</rscale>
<asrwt>0</asrwt>
<pdfrwt beam="1">  1       21 0.55526281E-02 0.12500000E+03</pdfrwt>
<pdfrwt beam="2">  1       21 0.15214007E-01 0.12500000E+03</pdfrwt>
<totfact> 0.86130316E+06</totfact>
</mgrwt>
</event>
<event>
 6      0 +1.3698540e+00 1.25000000e+02 7.54677100e-03 1.12640300e-01
       21 -1    0    0  502  501 +0.0000000000e+00 +0.0000000000e+00 +4.9787226466e+01 4.9787226466e+01 0.0000000000e+00 0.0000e+00 1.0000e+00
       21 -1    0    0  501  502 -0.0000000000e+00 -0.0000000000e+00 -7.8458879461e+01 7.8458879461e+01 0.0000000000e+00 0.0000e+00 1.0000e+00
       25  2    1    2    0    0 +0.0000000000e+00 +0.0000000000e+00 -2.8671652994e+01 1.2824610593e+02 1.2500000000e+02 0.0000e+00 0.0000e+00
      -15  1    3    3    0    0 -1.9107847749e+01 -2.8332562105e+01 +5.8251566361e+00 3.4712160692e+01 1.7770000000e+00 0.0000e+00 -1.0000e+00
       15  1    3    3    0    0 +2.5718294066e+01 +8.7784511983e+00 -5.6893934136e+01 6.3075901306e+01 1.7770000000e+00 0.0000e+00 -1.0000e+00
       22  1    3    3    0    0 -6.6104463169e+00 +1.9554110907e+01 +2.2397124506e+01 3.0458043929e+01 0.0000000000e+00 0.0000e+00 -1.0000e+00
<mgrwt>
<rscale>  2 0.12500000E+03</rscale>
<asrwt>0</asrwt>
<pdfrwt beam="1">  1       21 0.73216511E-02 0.12500000E+03</pdfrwt>
<pdfrwt beam="2">  1       21 0.11538070E-01 0.12500000E+03</pdfrwt>
<totfact> 0.88414138E+06</totfact>
</mgrwt>
</event>
<event>
 6      0 +1.3698540e+00 1.25000000e+02 7.54677100e-03 1.12640300e-01
       21 -1    0    0  502  501 +0.0000000000e+00 +0.0000000000e+00 +8.2232497934e+01 8.2232497934e+01 0.0000000000e+00 0.0000e+00 -1.0000e+00
       21 -1    0    0  501  502 -0.0000000000e+00 -0.0000000000e+00 -4.7502509326e+01 4.7502509326e+01 0.0000000000e+00 0.0000e+00 -1.0000e+00
       25  2    1    2    0    0 +0.0000000000e+00 +0.0000000000e+00 +3.4729988609e+01 1.2973500726e+02 1.2500000000e+02 0.0000e+00 0.0000e+00
      -15  1    3    3    0    0 -2.4084225372e+01 +3.0856652633e+01 +7.9023690954e+00 3.9972341560e+01 1.7770000000e+00 0.0000e+00 -1.0000e+00
       15  1    3    3    0    0 -1.7711812497e+01 -2.3300833402e+01 +3.5877600692e+01 4.6335700054e+01 1.7770000000e+00 0.0000e+00 -1.0000e+00
       22  1    3    3    0    0 +4.1796037869e+01 -7.5558192313e+00 -9.0499811789e+00 4.3426965645e+01 0.0000000000e+00 0.0000e+00 -1.0000e+00
<mgrwt>
<rscale>  2 0.12500000E+03</rscale>
<asrwt>0</asrwt>
<pdfrwt beam="1">  1       21 0.12093014E-01 0.12500000E+03</pdfrwt>
<pdfrwt beam="2">  1       21 0.69856631E-02 0.12500000E+03</pdfrwt>
<totfact> 0.88146258E+06</totfact>
</mgrwt>
</event>
<event>
 6      0 +1.3698540e+00 1.25000000e+02 7.54677100e-03 1.12640300e-01
       21 -1    0    0  502  501 +0.0000000000e+00 +0.0000000000e+00 +1.1445425576e+01 1.1445425576e+01 0.0000000000e+00 0.0000e+00 -1.0000e+00
       21 -1    0    0  501  502 -0.0000000000e+00 -0.0000000000e+00 -3.4129355644e+02 3.4129355644e+02 0.0000000000e+00 0.0000e+00 -1.0000e+00
       25  2    1    2    0    0 +0.0000000000e+00 +0.0000000000e+00 -3.2984813087e+02 3.5273898202e+02 1.2500000000e+02 0.0000e+00 0.0000e+00
      -15  1    3    3    0    0 +1.2937134659e+01 -1.8757767037e+01 -2.7727657904e+01 3.5933327416e+01 1.7770000000e+00 0.0000e+00 -1.0000e+00
       15  1    3    3    0    0 +3.1161161210e+01 +2.6925141961e+01 -7.7794390792e+01 8.8040366908e+01 1.7770000000e+00 0.0000e+00 -1.0000e+00
       22  1    3    3    0    0 -4.4098295869e+01 -8.1673749245e+00 -2.2432608219e+02 2.2876528772e+02 0.0000000000e+00 0.0000e+00 -1.0000e+00
<mgrwt>
<rscale>  2 0.12500000E+03</rscale>
<asrwt>0</asrwt>
<pdfrwt beam="1">  1       21 0.16831507E-02 0.12500000E+03</pdfrwt>
<pdfrwt beam="2">  1       21 0.50190232E-01 0.12500000E+03</pdfrwt>
<totfact> 0.58249140E+06</totfact>
</mgrwt>
</event>
<event>
 6      0 +1.3698540e+00 1.25000000e+02 7.54677100e-03 1.12640300e-01
       21 -1    0    0  502  501 +0.0000000000e+00 +0.0000000000e+00 +1.0251778720e+02 1.0251778720e+02 0.0000000000e+00 0.0000e+00 1.0000e+00
       21 -1    0    0  501  502 -0.0000000000e+00 -0.0000000000e+00 -3.8103143920e+01 3.8103143920e+01 0.0000000000e+00 0.0000e+00 1.0000e+00
       25  2    1    2    0    0 +0.0000000000e+00 +0.0000000000e+00 +6.4414643280e+01 1.4062093112e+02 1.2500000000e+02 0.0000e+00 0.0000e+00
      -15  1    3    3    0    0 +5.0517591860e+01 +3.6720000824e+01 +3.0764601535e+01 6.9641969993e+01 1.7770000000e+00 0.0000e+00 1.0000e+00
       15  1    3    3    0    0 -5.0527687200e+01 -3.6715414459e+01 +3.3639541776e+01 7.0963690240e+01 1.7770000000e+00 0.0000e+00 1.0000e+00
       22  1    3    3    0    0 +1.0095339118e-02 -4.5863649869e-03 +1.0499968441e-02 1.5270885795e-02 0.0000000000e+00 0.0000e+00 1.0000e+00
<mgrwt>
<rscale>  2 0.12500000E+03</rscale>
<asrwt>0</asrwt>
<pdfrwt beam="1">  1       21 0.15076145E-01 0.12500000E+03</pdfrwt>
<pdfrwt beam="2">  1       21 0.56034035E-02 0.12500000E+03</pdfrwt>
<totfact> 0.86232887E+06</totfact>
</mgrwt>
</event>
<event>
 6      0 +1.3698540e+00 1.25000000e+02 7.54677100e-03 1.12640300e-01
       21 -1    0    0  502  501 +0.0000000000e+00 +0.0000000000e+00 +3.7826987863e+00 3.7826987863e+00 0.0000000000e+00 0.0000e+00 1.0000e+00
       21 -1    0    0  501  502 -0.0000000000e+00 -0.0000000000e+00 -1.0326621866e+03 1.0326621866e+03 0.0000000000e+00 0.0000e+00 1.0000e+00
       25  2    1    2    0    0 +0.0000000000e+00 +0.0000000000e+00 -1.0288794878e+03 1.0364448854e+03 1.2500000000e+02 0.0000e+00 0.0000e+00
      -15  1    3    3    0    0 +9.1882244655e+00 -5.4580196908e-01 -2.8173071818e+01 2.9691767769e+01 1.7770000000e+00 0.0000e+00 -1.0000e+00
       15  1    3    3    0    0 +1.0508009970e+01 +6.0525461070e+00 -9.9521763981e+00 1.5787815936e+01 1.7770000000e+00 0.0000e+00 -1.0000e+00
       22  1    3    3    0    0 -1.9696234436e+01 -5.5067441379e+00 -9.9075423773e+02 9.9096529983e+02 0.0000000000e+00 0.0000e+00 -1.0000e+00
<mgrwt>
<rscale>  2 0.12500000E+03</rscale>
<asrwt>0</asrwt>
<pdfrwt beam="1">  1       21 0.55627975E-03 0.12500000E+03</pdfrwt>
<pdfrwt beam="2">  1       21 0.15186195E+00 0.12500000E+03</pdfrwt>
<totfact> 0.20117749E+06</totfact>
</mgrwt>
</event>
<event>
 6      0 +1.3698540e+00 1.25000000e+02 7.54677100e-03 1.12640300e-01
       21 -1    0    0  502  501 +0.0000000000e+00 +0.0000000000e+00 +2.8315426243e+00 2.8315426243e+00 0.0000000000e+00 0.0000e+00 1.0000e+00
       21 -1    0    0  501  502 -0.0000000000e+00 -0.0000000000e+00 -1.3795483658e+03 1.3795483658e+03 0.0000000000e+00 0.0000e+00 1.0000e+00
       25  2    1    2    0    0 +0.0000000000e+00 +0.0000000000e+00 -1.3767168232e+03 1.3823799084e+03 1.2500000000e+02 0.0000e+00 0.0000e+00
      -15  1    3    3    0    0 -6.5734920878e-01 +5.2347160422e+01 -7.4547329115e+02 7.4731134266e+02 1.7770000000e+00 0.0000e+00 -1.0000e+00
       15  1    3    3    0    0 -1.0087403182e+01 +2.3148164568e+00 -1.9499048996e+02 1.9527304725e+02 1.7770000000e+00 0.0000e+00 -1.0000e+00
       22  1    3    3    0    0 +1.0744752390e+01 -5.4661976878e+01 -4.3625304798e+02 4.3979552441e+02 0.0000000000e+00 0.0000e+00 -1.0000e+00
<mgrwt>
<rscale>  2 0.12500000E+03</rscale>
<asrwt>0</asrwt>
<pdfrwt beam="1">  1       21 0.41640301E-03 0.12500000E+03</pdfrwt>
<pdfrwt beam="2">  1       21 0.20287491E+00 0.12500000E+03</pdfrwt>
<totfact> 0.12469546E+06</totfact>
</mgrwt>
</event>
<event>
 6      0 +1.3698540e+00 1.25000000e+02 7.54677100e-03 1.12640300e-01
       21 -1    0    0  502  501 +0.0000000000e+00 +0.0000000000e+00 +4.1661613729e+02 4.1661613729e+02 0.0000000000e+00 0.0000e+00 1.0000e+00
       21 -1    0    0  501  502 -0.0000000000e+00 -0.0000000000e+00 -9.3761370488e+00 9.3761370488e+00 0.0000000000e+00 0.0000e+00 1.0000e+00
       25  2    1    2    0    0 +0.0000000000e+00 +0.0000000000e+00 +4.0724000024e+02 4.2599227434e+02 1.2500000000e+02 0.0000e+00 0.0000e+00
      -15  1    3    3    0    0 -1.2821357436e+01 -4.5338884614e+00 +3.0373954884e+01 3.3326839264e+01 1.7770000000e+00 0.0000e+00 -1.0000e+00
       15  1    3    3    0    0 -3.6274839258e+01 -3.2522914930e+01 +1.6602278230e+02 1.7303273080e+02 1.7770000000e+00 0.0000e+00 -1.0000e+00
       22  1    3    3    0    0 +4.9096196694e+01 +3.7056803391e+01 +2.1084326303e+02 2.1963270425e+02 0.0000000000e+00 0.0000e+00 -1.0000e+00
<mgrwt>
<rscale>  2 0.12500000E+03</rscale>
<asrwt>0</asrwt>
<pdfrwt beam="1">  1       21 0.61267067E-01 0.12500000E+03</pdfrwt>
<pdfrwt beam="2">  1       21 0.13788440E-02 0.12500000E+03</pdfrwt>
<totfact> 0.51321189E+06</totfact>
</mgrwt>
</event>
<event>
 6      0 +1.3698540e+00 1.25000000e+02 7.54677100e-03 1.12640300e-01
       21 -1    0    0  502  501 +0.0000000000e+00 +0.0000000000e+00 +4.0699805247e+01 4.0699805247e+01 0.0000000000e+00 0.0000e+00 1.0000e+00
       21 -1    0    0  501  502 -0.0000000000e+00 -0.0000000000e+00 -9.5977117735e+01 9.5977117735e+01 0.0000000000e+00 0.0000e+00 1.0000e+00
       25  2    1    2    0    0 +0.0000000000e+00 +0.0000000000e+00 -5.5277312487e+01 1.3667692298e+02 1.2500000000e+02 0.0000e+00 0.0000e+00
      -15  1    3    3    0    0 -5.9885094589e+01 +7.1475706864e+00 -9.8154137739e+00 6.1129472411e+01 1.7770000000e+00 0.0000e+00 -1.0000e+00
       15  1    3    3    0    0 +5.9885721382e+01 -7.1477049476e+00 -4.5461751912e+01 7.5546792965e+01 1.7770000000e+00 0.0000e+00 -1.0000e+00
       22  1    3    3    0    0 -6.2679226094e-04 +1.3426125429e-04 -1.4680207502e-04 6.5760586373e-04 0.0000000000e+00 0.0000e+00 1.0000e+00
<mgrwt>
<rscale>  2 0.12500000E+03</rscale>
<asrwt>0</asrwt>
<pdfrwt beam="1">  1       21 0.59852656E-02 0.12500000E+03</pdfrwt>
<pdfrwt beam="2">  1       21 0.14114282E-01 0.12500000E+03</pdfrwt>
<totfact> 0.86913965E+06</totfact>
</mgrwt>
</event>
<event>
 6      0 +1.3698540e+00 1.25000000e+02 7.54677100e-03 1.12640300e-01
       21 -1    0    0  502  501 +0.0000000000e+00 +0.0000000000e+00 +4.7323832572e+00 4.7323832572e+00 0.0000000000e+00 0.0000e+00 1.0000e+00
       21 -1    0    0  501  502 -0.0000000000e+00 -0.0000000000e+00 -8.2542976503e+02 8.2542976503e+02 0.0000000000e+00 0.0000e+00 1.0000e+00
       25  2    1    2    0    0 +0.0000000000e+00 +0.0000000000e+00 -8.2069738177e+02 8.3016214828e+02 1.2500000000e+02 0.0000e+00 0.0000e+00
      -15  1    3    3    0    0 -2.3461968606e+01 +2.2624196578e+01 -8.8900420441e+01 9.4703541250e+01 1.7770000000e+00 0.0000e+00 1.0000e+00
       15  1    3    3    0    0 +3.2509927874e+01 -3.0561826635e+01 -7.0057840777e+02 7.0200013093e+02 1.7770000000e+00 0.0000e+00 1.0000e+00
       22  1    3    3    0    0 -9.0479592684e+00 +7.9376300574e+00 -3.1218553738e+01 3.3458476286e+01 0.0000000000e+00 0.0000e+00 1.0000e+00
<mgrwt>
<rscale>  2 0.12500000E+03</rscale>
<asrwt>0</asrwt>
<pdfrwt beam="1">  1       21 0.69593907E-03 0.12500000E+03</pdfrwt>
<pdfrwt beam="2">  1       21 0.12138667E+00 0.12500000E+03</pdfrwt>
<totfact> 0.27051927E+06</totfact>
</mgrwt>
</event>
<event>
 6      0 +1.3698540e+00 1.25000000e+02 7.54677100e-03 1.12640300e-01
       21 -1    0    0  502  501 +0.0000000000e+00 +0.0000000000e+00 +8.9694478272e+01 8.9694478272e+01 0.0000000000e+00 0.0000e+00 -1.0000e+00
       21 -1    0    0  501  502 -0.0000000000e+00 -0.0000000000e+00 -4.3550618447e+01 4.3550618447e+01 0.0000000000e+00 0.0000e+00 -1.0000e+00
       25  2    1    2    0    0 +0.0000000000e+00 +0.0000000000e+00 +4.6143859826e+01 1.3324509672e+02 1.2500000000e+02 0.0000e+00 0.0000e+00
      -15  1    3    3    0    0 +4.6728494294e+01 -3.7180808253e+00 +1.9797119512e+01 5.0916205416e+01 1.7770000000e+00 0.0000e+00 -1.0000e+00
       15  1    3    3    0    0 -6.4038598890e+00 -2.2396966549e+01 -6.3571079257e+00 2.4211651787e+01 1.7770000000e+00 0.0000e+00 -1.0000e+00
       22  1    3    3    0    0 -4.0324634405e+01 +2.6115047375e+01 +3.2703848239e+01 5.8117239515e+01 0.0000000000e+00 0.0000e+00 -1.0000e+00
<mgrwt>
<rscale>  2 0.12500000E+03</rscale>
<asrwt>0</asrwt>
<pdfrwt beam="1">  1       21 0.13190364E-01 0.12500000E+03</pdfrwt>
<pdfrwt beam="2">  1       21 0.64045027E-02 0.12500000E+03</pdfrwt>
<totfact> 0.87514628E+06</totfact>
</mgrwt>
</event>
<event>
 6      0 +1.3698540e+00 1.25000000e+02 7.54677100e-03 1.12640300e-01
       21 -1    0    0  502  501 +0.0000000000e+00 +0.0000000000e+00 +9.7461484475e+00 9.7461484475e+00 0.0000000000e+00 0.0000e+00 -1.0000e+00
       21 -1    0    0  501  502 -0.0000000000e+00 -0.0000000000e+00 -4.0079935382e+02 4.0079935382e+02 0.0000000000e+00 0.0000e+00 -1.0000e+00
       25  2    1    2    0    0 +0.0000000000e+00 +0.0000000000e+00 -3.9105320537e+02 4.1054550227e+02 1.2500000000e+02 0.0000e+00 0.0000e+00
      -15  1    3    3    0    0 -8.8310797423e+00 +2.6499635951e+01 -2.5012446534e+01 3.7536633913e+01 1.7770000000e+00 0.0000e+00 -1.0000e+00
       15  1    3    3    0    0 +1.4327755324e+01 +1.9197653749e+01 -8.9664398405e+01 9.2826163082e+01 1.7770000000e+00 0.0000e+00 -1.0000e+00
       22  1    3    3    0    0 -5.4966755821e+00 -4.5697289700e+01 -2.7637636038e+02 2.8018270522e+02 0.0000000000e+00 0.0000e+00 -1.0000e+00
<mgrwt>
<rscale>  2 0.12500000E+03</rscale>
<asrwt>0</asrwt>
<pdfrwt beam="1">  1       21 0.14332573E-02 0.12500000E+03</pdfrwt>
<pdfrwt beam="2">  1       21 0.58941075E-01 0.12500000E+03</pdfrwt>
<totfact> 0.52692915E+06</totfact>
</mgrwt>
</event>
<event>
 6      0 +1.3698540e+00 1.25000000e+02 7.54677100e-03 1.12640300e-01
       21 -1    0    0  502  501 +0.0000000000e+00 +0.0000000000e+00 +4.6567598978e+02 4.6567598978e+02 0.0000000000e+00 0.0000e+00 -1.0000e+00
       21 -1    0    0  501  502 -0.0000000000e+00 -0.0000000000e+00 -8.3883431522e+00 8.3883431522e+00 0.0000000000e+00 0.0000e+00 -1.0000e+00
       25  2    1    2    0    0 +0.0000000000e+00 +0.0000000000e+00 +4.5728764663e+02 4.7406433293e+02 1.2500000000e+02 0.0000e+00 0.0000e+00
      -15  1    3    3    0    0 +7.4830685739e+00 +1.0911825942e+01 +1.8474464998e+02 1.8522636876e+02 1.7770000000e+00 0.0000e+00 -1.0000e+00
       15  1    3    3    0    0 -1.1445493702e+00 +3.7813901608e+01 +1.8121987384e+02 1.8513509001e+02 1.7770000000e+00 0.0000e+00 -1.0000e+00
       22  1    3    3    0    0 -6.3385192036e+00 -4.8725727549e+01 +9.1323122871e+01 1.0370287422e+02 0.0000000000e+00 0.0000e+00 -1.0000e+00
<mgrwt>
<rscale>  2 0.12500000E+03</rscale>
<asrwt>0</asrwt>
<pdfrwt beam="1">  1       21 0.68481746E-01 0.12500000E+03</pdfrwt>
<pdfrwt beam="2">  1       21 0.12335802E-02 0.12500000E+03</pdfrwt>
<totfact> 0.47320339E+06</totfact>
</mgrwt>
</event>
<event>
 6      0 +1.3698540e+00 1.25000000e+02 7.54677100e-03 1.12640300e-01
       21 -1    0    0  502  501 +0.0000000000e+00 +0.0000000000e+00 +2.0957765596e+01 2.0957765596e+01 0.0000000000e+00 0.0000e+00 1.0000e+00
       21 -1    0    0  501  502 -0.0000000000e+00 -0.0000000000e+00 -1.8638675875e+02 1.8638675875e+02 0.0000000000e+00 0.0000e+00 1.0000e+00
       25  2    1    2    0    0 +0.0000000000e+00 +0.0000000000e+00 -1.6542899315e+02 2.0734452434e+02 1.2500000000e+02 0.0000e+00 0.0000e+00
      -15  1    3    3    0    0 +8.9356390672e+00 +1.9006973672e+01 -1.3580989496e+02 1.3743578861e+02 1.7770000000e+00 0.0000e+00 -1.0000e+00
       15  1    3    3    0    0 +2.0245822159e+01 +9.5793389309e+00 -1.0965759047e+01 2.5001252963e+01 1.7770000000e+00 0.0000e+00 -1.0000e+00
       22  1    3    3    0    0 -2.9181461226e+01 -2.8586312603e+01 -1.8653339149e+01 4.4907482771e+01 0.0000000000e+00 0.0000e+00 -1.0000e+00
<mgrwt>
<rscale>  2 0.12500000E+03</rscale>
<asrwt>0</asrwt>
<pdfrwt beam="1">  1       21 0.30820243E-02 0.12500000E+03</pdfrwt>
<pdfrwt beam="2">  1       21 0.27409818E-01 0.12500000E+03</pdfrwt>
<totfact> 0.75760676E+06</totfact>
</mgrwt>
</event>
<event>
 6      0 +1.3698540e+00 1.25000000e+02 7.54677100e-03 1.12640300e-01
       21 -1    0    0  502  501 +0.0000000000e+00 +0.0000000000e+00 +1.1945683634e+02 1.1945683634e+02 0.0000000000e+00 0.0000e+00 -1.0000e+00
       21 -1    0    0  501  502 -0.0000000000e+00 -0.0000000000e+00 -3.2700095865e+01 3.2700095865e+01 0.0000000000e+00 0.0000e+00 -1.0000e+00
       25  2    1    2    0    0 +0.0000000000e+00 +0.0000000000e+00 +8.6756740474e+01 1.5215693220e+02 1.2500000000e+02 0.0000e+00 0.0000e+00
      -15  1    3    3    0    0 +1.4749363806e+01 +4.9219605919e+01 +1.2299380221e-01 5.1412899120e+01 1.7770000000e+00 0.0000e+00 1.0000e+00
       15  1    3    3    0    0 -1.4753028780e+01 -4.9221176114e+01 +8.6625092661e+01 1.0073450473e+02 1.7770000000e+00 0.0000e+00 1.0000e+00
       22  1    3    3    0    0 +3.6649736216e-03 +1.5701954646e-03 +8.6540143837e-03 9.5283529740e-03 0.0000000000e+00 0.0000e+00 1.0000e+00
<mgrwt>
<rscale>  2 0.12500000E+03</rscale>
<asrwt>0</asrwt>
<pdfrwt beam="1">  1       21 0.17567182E-01 0.12500000E+03</pdfrwt>
<pdfrwt beam="2">  1       21 0.48088377E-02 0.12500000E+03</pdfrwt>
<totfact> 0.84265340E+06</totfact>
</mgrwt>
</event>
<event>
 6      0 +1.3698540e+00 1.25000000e+02 7.54677100e-03 1.12640300e-01
       21 -1    0    0  502  501 +0.0000000000e+00 +0.0000000000e+00 +2.1873655562e+02 2.1873655562e+02 0.0000000000e+00 0.0000e+00 1.0000e+00
       21 -1    0    0  501  502 -0.0000000000e+00 -0.0000000000e+00 -1.7858240425e+01 1.7858240425e+01 0.0000000000e+00 0.0000e+00 1.0000e+00
       25  2    1    2    0    0 +0.0000000000e+00 +0.0000000000e+00 +2.0087831519e+02 2.3659479604e+02 1.2500000000e+02 0.0000e+00 0.0000e+00
      -15  1    3    3    0    0 -5.9764410433e+00 +6.1557137154e+01 +8.3834902920e+01 1.0419427844e+02 1.7770000000e+00 0.0000e+00 1.0000e+00
       15  1    3    3    0    0 +5.9768553379e+00 -6.1567378179e+01 +1.1702925905e+02 1.3238304294e+02 1.7770000000e+00 0.0000e+00 1.0000e+00
       22  1    3    3    0    0 -4.1429457593e-04 +1.0241024649e-02 +1.4153219807e-02 1.7474663280e-02 0.0000000000e+00 0.0000e+00 -1.0000e+00
<mgrwt>
<rscale>  2 0.12500000E+03</rscale>
<asrwt>0</asrwt>
<pdfrwt beam="1">  1       21 0.32167139E-01 0.12500000E+03</pdfrwt>
<pdfrwt beam="2">  1       21 0.26262120E-02 0.12500000E+03</pdfrwt>
<totfact> 0.71757352E+06</totfact>
</mgrwt>
</event>
<event>
 6      0 +1.3698540e+00 1.25000000e+02 7.54677100e-03 1.12640300e-01
       21 -1    0    0  502  501 +0.0000000000e+00 +0.0000000000e+00 +2.6129933994e+01 2.6129933994e+01 0.0000000000e+00 0.0000e+00 -1.0000e+00
       21 -1    0    0  501  502 -0.0000000000e+00 -0.0000000000e+00 -1.4949329764e+02 1.4949329764e+02 0.0000000000e+00 0.0000e+00 -1.0000e+00
       25  2    1    2    0    0 +0.0000000000e+00 +0.0000000000e+00 -1.2336336365e+02 1.7562323164e+02 1.2500000000e+02 0.0000e+00 0.0000e+00
      -15  1    3    3    0    0 -1.2546438853e+01 -2.8091417298e+00 +8.2090357423e+00 1.5357421722e+01 1.7770000000e+00 0.0000e+00 -1.0000e+00
       15  1    3    3    0    0 +1.1489702672e+01 -3.9376721548e+01 -9.8292276732e+01 1.0652262136e+02 1.7770000000e+00 0.0000e+00 -1.0000e+00
       22  1    3    3    0    0 +1.0567361802e+00 +4.2185863278e+01 -3.3280122658e+01 5.3743188554e+01 0.0000000000e+00 0.0000e+00 -1.0000e+00
<mgrwt>
<rscale>  2 0.12500000E+03</rscale>
<asrwt>0</asrwt>
<pdfrwt beam="1">  1       21 0.38426374E-02 0.12500000E+03</pdfrwt>
<pdfrwt beam="2">  1       21 0.21984308E-01 0.12500000E+03</pdfrwt>
<totfact> 0.80481255E+06</totfact>
</mgrwt>
</event>
<event>
 6      0 +1.3698540e+00 1.25000000e+02 7.54677100e-03 1.12640300e-01
       21 -1    0    0  502  501 +0.0000000000e+00 +0.0000000000e+00 +8.1886624545e+00 8.1886624545e+00 0.0000000000e+00 0.0000e+00 1.0000e+00
       21 -1    0    0  501  502 -0.0000000000e+00 -0.0000000000e+00 -4.7703150810e+02 4.7703150810e+02 0.0000000000e+00 0.0000e+00 1.0000e+00
       25  2    1    2    0    0 +0.0000000000e+00 +0.0000000000e+00 -4.6884284565e+02 4.8522017056e+02 1.2500000000e+02 0.0000e+00 0.0000e+00
      -15  1    3    3    0    0 +1.0880472717e+01 -2.6624406756e+01 -3.9277144831e+01 4.8714428631e+01 1.7770000000e+00 0.0000e+00 -1.0000e+00
       15  1    3    3    0    0 +1.5925369719e+01 -1.6591794934e+01 -7.9956623128e+01 8.3217332154e+01 1.7770000000e+00 0.0000e+00 -1.0000e+00
       22  1    3    3    0    0 -2.6805842436e+01 +4.3216201690e+01 -3.4960907768e+02 3.5328840976e+02 0.0000000000e+00 0.0000e+00 -1.0000e+00
<mgrwt>
<rscale>  2 0.12500000E+03</rscale>
<asrwt>0</asrwt>
<pdfrwt beam="1">  1       21 0.12042152E-02 0.12500000E+03</pdfrwt>
<pdfrwt beam="2">  1       21 0.70151686E-01 0.12500000E+03</pdfrwt>
<totfact> 0.46445963E+06</totfact>
</mgrwt>
</event>
<event>
 6      0 +1.3698540e+00 1.25000000e+02 7.54677100e-03 1.12640300e-01
       21 -1    0    0  502  501 +0.0000000000e+00 +0.0000000000e+00 +2.8373395647e+01 2.8373395647e+01 0.0000000000e+00 0.0000e+00 1.0000e+00
       21 -1    0    0  501  502 -0.0000000000e+00 -0.0000000000e+00 -1.3767298242e+02 1.3767298242e+02 0.0000000000e+00 0.0000e+00 1.0000e+00
       25  2    1    2    0    0 +0.0000000000e+00 +0.0000000000e+00 -1.0929958677e+02 1.6604637806e+02 1.2500000000e+02 0.0000e+00 0.0000e+00
      -15  1    3    3    0    0 +1.7508453827e+01 -3.8590051074e+01 -6.5100149382e+01 7.7697652319e+01 1.7770000000e+00 0.0000e+00 -1.0000e+00
       15  1    3    3    0    0 -1.1745948455e+01 -1.6744112587e+01 -8.3385959567e+00 2.2159028024e+01 1.7770000000e+00 0.0000e+00 -1.0000e+00
       22  1    3    3    0    0 -5.7625053720e+00 +5.5334163661e+01 -3.5860841435e+01 6.6189697723e+01 0.0000000000e+00 0.0000e+00 -1.0000e+00
<mgrwt>
<rscale>  2 0.12500000E+03</rscale>
<asrwt>0</asrwt>
<pdfrwt beam="1">  1       21 0.41725582E-02 0.12500000E+03</pdfrwt>
<pdfrwt beam="2">  1       21 0.20246027E-01 0.12500000E+03</pdfrwt>
<totfact> 0.81996967E+06</totfact>
</mgrwt>
</event>
<event>
 6      0 +1.3698540e+00 1.25000000e+02 7.54677100e-03 1.12640300e-01
       21 -1    0    0  502  501 +0.0000000000e+00 +0.0000000000e+00 +1.0934745124e+03 1.0934745124e+03 0.0000000000e+00 0.0000e+00 1.0000e+00
       21 -1    0    0  501  502 -0.0000000000e+00 -0.0000000000e+00 -3.5723283496e+00 3.5723283496e+00 0.0000000000e+00 0.0000e+00 1.0000e+00
       25  2    1    2    0    0 +0.0000000000e+00 +0.0000000000e+00 +1.0899021840e+03 1.0970468407e+03 1.2500000000e+02 0.0000e+00 0.0000e+00
      -15  1    3    3    0    0 -1.7586382718e+01 +1.5911727689e+01 +8.2447581168e+02 8.2481875931e+02 1.7770000000e+00 0.0000e+00 -1.0000e+00
       15  1    3    3    0    0 +2.2409165274e+00 +1.1105897681e+01 +1.9396820337e+02 1.9430693327e+02 1.7770000000e+00 0.0000e+00 -1.0000e+00
       22  1    3    3    0    0 +1.5345466190e+01 -2.7017625370e+01 +7.1458168874e+01 7.7921148041e+01 0.0000000000e+00 0.0000e+00 -1.0000e+00
<mgrwt>
<rscale>  2 0.12500000E+03</rscale>
<asrwt>0</asrwt>
<pdfrwt beam="1">  1       21 0.16080484E+00 0.12500000E+03</pdfrwt>
<pdfrwt beam="2">  1       21 0.52534316E-03 0.12500000E+03</pdfrwt>
<totfact> 0.18483009E+06</totfact>
</mgrwt>
</event>
<event>
 6      0 +1.3698540e+00 1.25000000e+02 7.54677100e-03 1.12640300e-01
       21 -1    0    0  502  501 +0.0000000000e+00 +0.0000000000e+00 +6.5758809384e+02 6.5758809384e+02 0.0000000000e+00 0.0000e+00 -1.0000e+00
       21 -1    0    0  501  502 -0.0000000000e+00 -0.0000000000e+00 -5.9402687436e+00 5.9402687436e+00 0.0000000000e+00 0.0000e+00 -1.0000e+00
       25  2    1    2    0    0 +0.0000000000e+00 +0.0000000000e+00 +6.5164782509e+02 6.6352836258e+02 1.2500000000e+02 0.0000e+00 0.0000e+00
      -15  1    3    3    0    0 -1.2026582787e+01 -2.1966369068e+01 +1.8559058110e+02 1.8728102303e+02 1.7770000000e+00 0.0000e+00 -1.0000e+00
       15  1    3    3    0    0 +3.5356368155e+01 -2.6392543789e+01 +1.9763628029e+02 2.0250900265e+02 1.7770000000e+00 0.0000e+00 -1.0000e+00
       22  1    3    3    0    0 -2.3329785369e+01 +4.8358912858e+01 +2.6842096362e+02 2.7373833683e+02 0.0000000000e+00 0.0000e+00 -1.0000e+00
<mgrwt>
<rscale>  2 0.12500000E+03</rscale>
<asrwt>0</asrwt>
<pdfrwt beam="1">  1       21 0.96704081E-01 0.12500000E+03</pdfrwt>
<pdfrwt beam="2">  1       21 0.87356939E-03 0.12500000E+03</pdfrwt>
<totfact> 0.34820488E+06</totfact>
</mgrwt>
</event>
<event>
 6      0 +1.3698540e+00 1.25000000e+02 7.54677100e-03 1.12640300e-01
       21 -1    0    0  502  501 +0.0000000000e+00 +0.0000000000e+00 +4.9486877074e+01 4.9486877074e+01 0.0000000000e+00 0.0000e+00 1.0000e+00
       21 -1    0    0  501  502 -0.0000000000e+00 -0.0000000000e+00 -7.8935067860e+01 7.8935067860e+01 0.0000000000e+00 0.0000e+00 1.0000e+00
       25  2    1    2    0    0 +0.0000000000e+00 +0.0000000000e+00 -2.9448190786e+01 1.2842194493e+02 1.2500000000e+02 0.0000e+00 0.0000e+00
      -15  1    3    3    0    0 +4.8923250972e+01 -3.8677931280e+01 -1.8251276961e+01 6.5005643551e+01 1.7770000000e+00 0.0000e+00 -1.0000e+00
       15  1    3    3    0    0 -4.8934384008e+01 +3.8687255447e+01 -1.1192883416e+01 6.3401230591e+01 1.7770000000e+00 0.0000e+00 -1.0000e+00
       22  1    3    3    0    0 +1.1133036042e-02 -9.3241663648e-03 -4.0304099656e-03 1.5070792096e-02 0.0000000000e+00 0.0000e+00 -1.0000e+00
<mgrwt>
<rscale>  2 0.12500000E+03</rscale>
<asrwt>0</asrwt>
<pdfrwt beam="1">  1       21 0.72774820E-02 0.12500000E+03</pdfrwt>
<pdfrwt beam="2">  1       21 0.11608098E-01 0.12500000E+03</pdfrwt>
<totfact> 0.88382873E+06</totfact>
</mgrwt>
</event>
<event>
 6      0 +1.3698540e+00 1.25000000e+02 7.54677100e-03 1.12640300e-01
       21 -1    0    0  502  501 +0.0000000000e+00 +0.0000000000e+00 +3.6993614376e+02 3.6993614376e+02 0.0000000000e+00 0.0000e+00 -1.0000e+00
       21 -1    0    0  501  502 -0.0000000000e+00 -0.0000000000e+00 -1.0559254795e+01 1.0559254795e+01 0.0000000000e+00 0.0000e+00 -1.0000e+00
       25  2    1    2    0    0 +0.0000000000e+00 +0.0000000000e+00 +3.5937688897e+02 3.8049539856e+02 1.2500000000e+02 0.0000e+00 0.0000e+00
      -15  1    3    3    0    0 +2.7384207513e+01 -4.6632749766e+01 +8.4466187929e+01 1.0031053187e+02 1.7770000000e+00 0.0000e+00 1.0000e+00
       15  1    3    3    0    0 -2.7384207434e+01 +4.6632750024e+01 +2.7491070069e+02 2.8018486625e+02 1.7770000000e+00 0.0000e+00 1.0000e+00
       22  1    3    3    0    0 -7.9718253345e-08 -2.5819298050e-07 +3.5636973309e-07 4.4723372162e-07 0.0000000000e+00 0.0000e+00 -1.0000e+00
<mgrwt>
<rscale>  2 0.12500000E+03</rscale>
<asrwt>0</asrwt>
<pdfrwt beam="1">  1       21 0.54402365E-01 0.12500000E+03</pdfrwt>
<pdfrwt beam="2">  1       21 0.15528318E-02 0.12500000E+03</pdfrwt>
<totfact> 0.55496844E+06</totfact>
</mgrwt>
</event>
<event>
 6      0 +1.3698540e+00 1.25000000e+02 7.54677100e-03 1.12640300e-01
       21 -1    0    0  502  501 +0.0000000000e+00 +0.0000000000e+00 +5.6266858176e+01 5.6266858176e+01 0.0000000000e+00 0.0000e+00 -1.0000e+00
       21 -1    0    0  501  502 -0.0000000000e+00 -0.0000000000e+00 -6.9423638117e+01 6.9423638117e+01 0.0000000000e+00 0.0000e+00 -1.0000e+00
       25  2    1    2    0    0 +0.0000000000e+00 +0.0000000000e+00 -1.3156779940e+01 1.2569049629e+02 1.2500000000e+02 0.0000e+00 0.0000e+00
      -15  1    3    3    0    0 -3.6032801935e+01 -4.5889495503e+01 -2.7167168018e+01 6.4384946687e+01 1.7770000000e+00 0.0000e+00 -1.0000e+00
       15  1    3    3    0    0 +3.6319721198e+01 +4.6026354593e+01 +1.2778470339e+01 6.0033278256e+01 1.7770000000e+00 0.0000e+00 -1.0000e+00
       22  1    3    3    0    0 -2.8691926301e-01 -1.3685908999e-01 +1.2319177383e+00 1.2722713500e+00 0.0000000000e+00 0.0000e+00 1.0000e+00
<mgrwt>
<rscale>  2 0.12500000E+03</rscale>
<asrwt>0</asrwt>
<pdfrwt beam="1">  1       21 0.82745380E-02 0.12500000E+03</pdfrwt>
<pdfrwt beam="2">  1       21 0.10209359E-01 0.12500000E+03</pdfrwt>
<totfact> 0.88868157E+06</totfact>
</mgrwt>
</event>
<event>
 6      0 +1.3698540e+00 1.25000000e+02 7.54677100e-03 1.12640300e-01
       21 -1    0    0  502  501 +0.0000000000e+00 +0.0000000000e+00 +9.1946896034e+00 9.1946896034e+00 0.0000000000e+00 0.0000e+00 1.0000e+00
       21 -1    0    0  501  502 -0.0000000000e+00 -0.0000000000e+00 -4.2483761481e+02 4.2483761481e+02 0.0000000000e+00 0.0000e+00 1.0000e+00
       25  2    1    2    0    0 +0.0000000000e+00 +0.0000000000e+00 -4.1564292520e+02 4.3403230441e+02 1.2500000000e+02 0.0000e+00 0.0000e+00
      -15  1    3    3    0    0 +4.3775909391e+01 -2.0986266007e+01 -7.1280063223e+01 8.6259832750e+01 1.7770000000e+00 0.0000e+00 -1.0000e+00
       15  1    3    3    0    0 -4.3775908618e+01 +2.0986265694e+01 -3.4436285701e+02 3.4777246663e+02 1.7770000000e+00 0.0000e+00 -1.0000e+00
       22  1    3    3    0    0 -7.7303305381e-07 +3.1219313987e-07 -4.9302658569e-06 5.0002566013e-06 0.0000000000e+00 0.0000e+00 1.0000e+00
<mgrwt>
<rscale>  2 0.12500000E+03</rscale>
<asrwt>0</asrwt>
<pdfrwt beam="1">  1       21 0.13521602E-02 0.12500000E+03</pdfrwt>
<pdfrwt beam="2">  1       21 0.62476120E-01 0.12500000E+03</pdfrwt>
<totfact> 0.50624756E+06</totfact>
</mgrwt>
</event>
<event>
 6      0 +1.3698540e+00 1.25000000e+02 7.54677100e-03 1.12640300e-01
       21 -1    0    0  502  501 +0.0000000000e+00 +0.0000000000e+00 +8.5591551001e+02 8.5591551001e+02 0.0000000000e+00 0.0000e+00 -1.0000e+00
       21 -1    0    0  501  502 -0.0000000000e+00 -0.0000000000e+00 -4.5638266328e+00 4.5638266328e+00 0.0000000000e+00 0.0000e+00 -1.0000e+00
       25  2    1    2    0    0 +0.0000000000e+00 +0.0000000000e+00 +8.5135168337e+02 8.6047933664e+02 1.2500000000e+02 0.0000e+00 0.0000e+00
      -15  1    3    3    0    0 +1.0532353642e+01 -8.4337188661e+00 +4.5564838579e+02 4.5585158472e+02 1.7770000000e+00 0.0000e+00 -1.0000e+00
       15  1    3    3    0    0 -3.2233419921e+01 -1.0140802819e+01 +3.4313920030e+02 3.4480356401e+02 1.7770000000e+00 0.0000e+00 -1.0000e+00
       22  1    3    3    0    0 +2.1701066279e+01 +1.8574521685e+01 +5.2564097076e+01 5.9824187708e+01 0.0000000000e+00 0.0000e+00 -1.0000e+00
<mgrwt>
<rscale>  2 0.12500000E+03</rscale>
<asrwt>0</asrwt>
<pdfrwt beam="1">  1       21 0.12586982E+00 0.12500000E+03</pdfrwt>
<pdfrwt beam="2">  1       21 0.67115157E-03 0.12500000E+03</pdfrwt>
<totfact> 0.25871842E+06</totfact>
</mgrwt>
</event>
<event>
 6      0 +1.3698540e+00 1.25000000e+02 7.54677100e-03 1.12640300e-01
       21 -1    0    0  502  501 +0.0000000000e+00 +0.0000000000e+00 +4.2587085839e+00 4.2587085839e+00 0.0000000000e+00 0.0000e+00 -1.0000e+00
       21 -1    0    0  501  502 -0.0000000000e+00 -0.0000000000e+00 -9.1723815402e+02 9.1723815402e+02 0.0000000000e+00 0.0000e+00 -1.0000e+00
       25  2    1    2    0    0 +0.0000000000e+00 +0.0000000000e+00 -9.1297944543e+02 9.2149686260e+02 1.2500000000e+02 0.0000e+00 0.0000e+00
      -15  1    3    3    0    0 +2.4208809763e+00 +1.2395024472e+00 -1.2518774272e+00 3.4816601084e+00 1.7770000000e+00 0.0000e+00 -1.0000e+00
       15  1    3    3    0    0 +1.8248372310e+01 -4.2233957897e+01 -2.2002596700e+02 2.2479166838e+02 1.7770000000e+00 0.0000e+00 -1.0000e+00
       22  1    3    3    0    0 -2.0669253286e+01 +4.0994455449e+01 -6.9170160088e+02 6.9322353399e+02 0.0000000000e+00 0.0000e+00 -1.0000e+00
<mgrwt>
<rscale>  2 0.12500000E+03</rscale>
<asrwt>0</asrwt>
<pdfrwt beam="1">  1       21 0.62628033E-03 0.12500000E+03</pdfrwt>
<pdfrwt beam="2">  1       21 0.13488804E+00 0.12500000E+03</pdfrwt>
<totfact> 0.23686397E+06</totfact>
</mgrwt>
</event>
<event>
 6      0 +1.3698540e+00 1.25000000e+02 7.54677100e-03 1.12640300e-01
       21 -1    0    0  502  501 +0.0000000000e+00 +0.0000000000e+00 +8.8964244132e+00 8.8964244132e+00 0.0000000000e+00 0.0000e+00 1.0000e+00
       21 -1    0    0  501  502 -0.0000000000e+00 -0.0000000000e+00 -4.3908089571e+02 4.3908089571e+02 0.0000000000e+00 0.0000e+00 1.0000e+00
       25  2    1    2    0    0 +0.0000000000e+00 +0.0000000000e+00 -4.3018447130e+02 4.4797732013e+02 1.2500000000e+02 0.0000e+00 0.0000e+00
      -15  1    3    3    0    0 +2.7935655234e+01 +3.1801121992e+01 -5.0416855273e+01 6.5853847404e+01 1.7770000000e+00 0.0000e+00 -1.0000e+00
       15  1    3    3    0    0 -2.7935694137e+01 -3.1801206012e+01 -3.7976751887e+02 3.8212333850e+02 1.7770000000e+00 0.0000e+00 -1.0000e+00
       22  1    3    3    0    0 +3.8903167397e-05 +8.4019467032e-05 -9.7114868171e-05 1.3417907770e-04 0.0000000000e+00 0.0000e+00 -1.0000e+00
<mgrwt>
<rscale>  2 0.12500000E+03</rscale>
<asrwt>0</asrwt>
<pdfrwt beam="1">  1       21 0.13082973E-02 0.12500000E+03</pdfrwt>
<pdfrwt beam="2">  1       21 0.64570740E-01 0.12500000E+03</pdfrwt>
<totfact> 0.49444045E+06</totfact>
</mgrwt>
</event>
<event>
 6      0 +1.3698540e+00 1.25000000e+02 7.54677100e-03 1.12640300e-01
       21 -1    0    0  502  501 +0.0000000000e+00 +0.0000000000e+00 +8.1399508700e+01 8.1399508700e+01 0.0000000000e+00 0.0000e+00 -1.0000e+00
       21 -1    0    0  501  502 -0.0000000000e+00 -0.0000000000e+00 -4.7988618880e+01 4.7988618880e+01 0.0000000000e+00 0.0000e+00 -1.0000e+00
       25  2    1    2    0    0 +0.0000000000e+00 +0.0000000000e+00 +3.3410889820e+01 1.2938812758e+02 1.2500000000e+02 0.0000e+00 0.0000e+00
      -15  1    3    3    0    0 -3.7133656200e+01 -3.4365429330e+01 +1.0481888385e+01 5.1700279196e+01 1.7770000000e+00 0.0000e+00 -1.0000e+00
       15  1    3    3    0    0 -4.1869377898e+00 +3.2243553403e+01 +1.3510542218e+01 3.5254356669e+01 1.7770000000e+00 0.0000e+00 -1.0000e+00
       22  1    3    3    0    0 +4.1320593990e+01 +2.1218759272e+00 +9.4184592173e+00 4.2433491715e+01 0.0000000000e+00 0.0000e+00 -1.0000e+00
<mgrwt>
<rscale>  2 0.12500000E+03</rscale>
<asrwt>0</asrwt>
<pdfrwt beam="1">  1       21 0.11970516E-01 0.12500000E+03</pdfrwt>
<pdfrwt beam="2">  1       21 0.70571498E-02 0.12500000E+03</pdfrwt>
<totfact> 0.88209230E+06</totfact>
</mgrwt>
</event>
<event>
 6      0 +1.3698540e+00 1.25000000e+02 7.54677100e-03 1.12640300e-01
       21 -1    0    0  502  501 +0.0000000000e+00 +0.0000000000e+00 +1.3059342945e+02 1.3059342945e+02 0.0000000000e+00 0.0000e+00 -1.0000e+00
       21 -1    0    0  501  502 -0.0000000000e+00 -0.0000000000e+00 -2.9911535493e+01 2.9911535493e+01 0.0000000000e+00 0.0000e+00 -1.0000e+00
       25  2    1    2    0    0 +0.0000000000e+00 +0.0000000000e+00 +1.0068189395e+02 1.6050496494e+02 1.2500000000e+02 0.0000e+00 0.0000e+00
      -15  1    3    3    0    0 +4.1397382663e+01 +4.0384566147e+01 +2.0030426230e+01 6.1229340827e+01 1.7770000000e+00 0.0000e+00 1.0000e+00
       15  1    3    3    0    0 -4.0189280168e+01 -3.8960669196e+01 +7.7587389196e+01 9.5687369468e+01 1.7770000000e+00 0.0000e+00 1.0000e+00
       22  1    3    3    0    0 -1.2081024946e+00 -1.4238969512e+00 +3.0640785222e+00 3.5882546391e+00 0.0000000000e+00 0.0000e+00 -1.0000e+00
<mgrwt>
<rscale>  2 0.12500000E+03</rscale>
<asrwt>0</asrwt>
<pdfrwt beam="1">  1       21 0.19204916E-01 0.12500000E+03</pdfrwt>
<pdfrwt beam="2">  1       21 0.43987553E-02 0.12500000E+03</pdfrwt>
<totfact> 0.82896462E+06</totfact>
</mgrwt>
</event>
<event>
 6      0 +1.3698540e+00 1.25000000e+02 7.54677100e-03 1.12640300e-01
       21 -1    0    0  502  501 +0.0000000000e+00 +0.0000000000e+00 +4.8526054930e+01 4.8526054930e+01 0.0000000000e+00 0.0000e+00 1.0000e+00
       21 -1    0    0  501  502 -0.0000000000e+00 -0.0000000000e+00 -8.0497992380e+01 8.0497992380e+01 0.0000000000e+00 0.0000e+00 1.0000e+00
       25  2    1    2    0    0 +0.0000000000e+00 +0.0000000000e+00 -3.1971937450e+01 1.2902404731e+02 1.2500000000e+02 0.0000e+00 0.0000e+00
      -15  1    3    3    0    0 +1.1188671463e+01 -2.4242484242e+01 +2.9877603607e+01 4.0108768838e+01 1.7770000000e+00 0.0000e+00 -1.0000e+00
       15  1    3    3    0    0 +4.5309964851e+00 +2.5735458600e+01 -6.7294976572e+01 7.2212293686e+01 1.7770000000e+00 0.0000e+00 -1.0000e+00
       22  1    3    3    0    0 -1.5719667948e+01 -1.4929743573e+00 +5.4454355155e+00 1.6702984787e+01 0.0000000000e+00 0.0000e+00 -1.0000e+00
<mgrwt>
<rscale>  2 0.12500000E+03</rscale>
<asrwt>0</asrwt>
<pdfrwt beam="1">  1       21 0.71361847E-02 0.12500000E+03</pdfrwt>
<pdfrwt beam="2">  1       21 0.11837940E-01 0.12500000E+03</pdfrwt>
<totfact> 0.88274993E+06</totfact>
</mgrwt>
</event>
<event>
 6      0 +1.3698540e+00 1.25000000e+02 7.54677100e-03 1.12640300e-01
       21 -1    0    0  502  501 +0.0000000000e+00 +0.0000000000e+00 +4.2708842120e+02 4.2708842120e+02 0.0000000000e+00 0.0000e+00 -1.0000e+00
       21 -1    0    0  501  502 -0.0000000000e+00 -0.0000000000e+00 -9.1462325040e+00 9.1462325040e+00 0.0000000000e+00 0.0000e+00 -1.0000e+00
       25  2    1    2    0    0 +0.0000000000e+00 +0.0000000000e+00 +4.1794218869e+02 4.3623465370e+02 1.2500000000e+02 0.0000e+00 0.0000e+00
      -15  1    3    3    0    0 -2.8211356882e+01 -5.5432392440e+01 +1.8866255454e+02 1.9865887346e+02 1.7770000000e+00 0.0000e+00 -1.0000e+00
       15  1    3    3    0    0 +2.8216910235e+01 +5.5417437413e+01 +2.2914685324e+02 2.3744204445e+02 1.7770000000e+00 0.0000e+00 -1.0000e+00
       22  1    3    3    0    0 -5.5533528252e-03 +1.4955027493e-02 +1.3278088162e-01 1.3373576596e-01 0.0000000000e+00 0.0000e+00 -1.0000e+00
<mgrwt>
<rscale>  2 0.12500000E+03</rscale>
<asrwt>0</asrwt>
<pdfrwt beam="1">  1       21 0.62807107E-01 0.12500000E+03</pdfrwt>
<pdfrwt beam="2">  1       21 0.13450345E-02 0.12500000E+03</pdfrwt>
<totfact> 0.50436032E+06</totfact>
</mgrwt>
</event>
<event>
 6      0 +1.3698540e+00 1.25000000e+02 7.54677100e-03 1.12640300e-01
       21 -1    0    0  502  501 +0.0000000000e+00 +0.0000000000e+00 +5.5485650477e+00 5.5485650477e+00 0.0000000000e+00 0.0000e+00 1.0000e+00
       21 -1    0    0  501  502 -0.0000000000e+00 -0.0000000000e+00 -7.0401085081e+02 7.0401085081e+02 0.0000000000e+00 0.0000e+00 1.0000e+00
       25  2    1    2    0    0 +0.0000000000e+00 +0.0000000000e+00 -6.9846228576e+02 7.0955941585e+02 1.2500000000e+02 0.0000e+00 0.0000e+00
      -15  1    3    3    0    0 -2.0828719580e+01 +1.8662192783e+01 -1.5790181311e+02 1.6036911583e+02 1.7770000000e+00 0.0000e+00 -1.0000e+00
       15  1    3    3    0    0 -3.4982602425e+01 -7.9828963195e+00 -2.9287198848e+02 2.9506722704e+02 1.7770000000e+00 0.0000e+00 -1.0000e+00
       22  1    3    3    0    0 +5.5811322005e+01 -1.0679296464e+01 -2.4768848435e+02 2.5412307317e+02 0.0000000000e+00 0.0000e+00 -1.0000e+00
<mgrwt>
<rscale>  2 0.12500000E+03</rscale>
<asrwt>0</asrwt>
<pdfrwt beam="1">  1       21 0.81596512E-03 0.12500000E+03</pdfrwt>
<pdfrwt beam="2">  1       21 0.10353105E+00 0.12500000E+03</pdfrwt>
<totfact> 0.32431140E+06</totfact>
</mgrwt>
</event>
<event>
 6      0 +1.3698540e+00 1.25000000e+02 7.54677100e-03 1.12640300e-01
       21 -1    0    0  502  501 +0.0000000000e+00 +0.0000000000e+00 +4.4173665965e+00 4.4173665965e+00 0.0000000000e+00 0.0000e+00 -1.0000e+00
       21 -1    0    0  501  502 -0.0000000000e+00 -0.0000000000e+00 -8.8429382408e+02 8.8429382408e+02 0.0000000000e+00 0.0000e+00 -1.0000e+00
       25  2    1    2    0    0 +0.0000000000e+00 +0.0000000000e+00 -8.7987645749e+02 8.8871119068e+02 1.2500000000e+02 0.0000e+00 0.0000e+00
      -15  1    3    3    0    0 -4.4774051318e+01 +2.9053078953e+01 -6.7078922402e+02 6.7291168653e+02 1.7770000000e+00 0.0000e+00 -1.0000e+00
       15  1    3    3    0    0 +4.4774051062e+01 -2.9053078791e+01 -2.0908723246e+02 2.1579950311e+02 1.7770000000e+00 0.0000e+00 -1.0000e+00
       22  1    3    3    0    0 +2.5582044823e-07 -1.6241377177e-07 -1.1510594324e-06 1.1902773425e-06 0.0000000000e+00 0.0000e+00 -1.0000e+00
<mgrwt>
<rscale>  2 0.12500000E+03</rscale>
<asrwt>0</asrwt>
<pdfrwt beam="1">  1       21 0.64961243E-03 0.12500000E+03</pdfrwt>
<pdfrwt beam="2">  1       21 0.13004327E+00 0.12500000E+03</pdfrwt>
<totfact> 0.24831751E+06</totfact>
</mgrwt>
</event>
<event>
 6      0 +1.3698540e+00 1.25000000e+02 7.54677100e-03 1.12640300e-01
       21 -1    0    0  502  501 +0.0000000000e+00 +0.0000000000e+00 +7.7601706494e+00 7.7601706494e+00 0.0000000000e+00 0.0000e+00 1.0000e+00
       21 -1    0    0  501  502 -0.0000000000e+00 -0.0000000000e+00 -5.0337166236e+02 5.0337166236e+02 0.0000000000e+00 0.0000e+00 1.0000e+00
       25  2    1    2    0    0 +0.0000000000e+00 +0.0000000000e+00 -4.9561149172e+02 5.1113183301e+02 1.2500000000e+02 0.0000e+00 0.0000e+00
      -15  1    3    3    0    0 -1.8314810882e+00 +6.5581761616e+00 -1.0663219961e+02 1.0686415545e+02 1.7770000000e+00 0.0000e+00 -1.0000e+00
       15  1    3    3    0    0 +2.0848744032e+01 +4.1578818902e+01 -9.5271109903e+01 1.0603400596e+02 1.7770000000e+00 0.0000e+00 -1.0000e+00
       22  1    3    3    0    0 -1.9017262943e+01 -4.8136995064e+01 -2.9370818235e+02 2.9823367174e+02 0.0000000000e+00 0.0000e+00 -1.0000e+00
<mgrwt>
<rscale>  2 0.12500000E+03</rscale>
<asrwt>0</asrwt>
<pdfrwt beam="1">  1       21 0.11412012E-02 0.12500000E+03</pdfrwt>
<pdfrwt beam="2">  1       21 0.74025268E-01 0.12500000E+03</pdfrwt>
<totfact> 0.44508304E+06</totfact>
</mgrwt>
</event>
<event>
 6      0 +1.3698540e+00 1.25000000e+02 7.54677100e-03 1.12640300e-01
       21 -1    0    0  502  501 +0.0000000000e+00 +0.0000000000e+00 +3.0671714647e+01 3.0671714647e+01 0.0000000000e+00 0.0000e+00 1.0000e+00
       21 -1    0    0  501  502 -0.0000000000e+00 -0.0000000000e+00 -1.2735675344e+02 1.2735675344e+02 0.0000000000e+00 0.0000e+00 1.0000e+00
       25  2    1    2    0    0 +0.0000000000e+00 +0.0000000000e+00 -9.6685038798e+01 1.5802846809e+02 1.2500000000e+02 0.0000e+00 0.0000e+00
      -15  1    3    3    0    0 +6.3699861095e+00 +1.3419149605e+01 +3.2806625257e+00 1.5315703536e+01 1.7770000000e+00 0.0000e+00 -1.0000e+00
       15  1    3    3    0    0 -2.4613390828e+01 +3.9108697502e+01 -4.5889123900e+01 6.5148128520e+01 1.7770000000e+00 0.0000e+00 -1.0000e+00
       22  1    3    3    0    0 +1.8243404719e+01 -5.2527847108e+01 -5.4076577426e+01 7.7564636037e+01 0.0000000000e+00 0.0000e+00 -1.0000e+00
<mgrwt>
<rscale>  2 0.12500000E+03</rscale>
<asrwt>0</asrwt>
<pdfrwt beam="1">  1       21 0.45105462E-02 0.12500000E+03</pdfrwt>
<pdfrwt beam="2">  1       21 0.18728935E-01 0.12500000E+03</pdfrwt>
<totfact> 0.83299923E+06</totfact>
</mgrwt>
</event>
</LesHouchesEvents>
