<LesHouchesEvents version="3.0">
<header>
<!--
#*********************************************************************
#                                                                    *
#                        MadGraph5_aMC@NLO                           *
#                                                                    *
#                           Going Beyond                             *
#                                                                    *
#                   http://madgraph.hep.uiuc.edu                     *
#                   http://madgraph.phys.ucl.ac.be                   *
#                   http://amcatnlo.cern.ch                          *
#                                                                    *
#                     The MadGraph5_aMC@NLO team                     *
#                                                                    *
#....................................................................*
#                                                                    *
# This file contains all the information necessary to reproduce      *
# the events generated:                                              *
#                                                                    *
# 1. software version                                                *
# 2. proc_card          : code generation info including model       *
# 3. param_card         : model primary parameters in the LH format  *
# 4. run_card           : running parameters (collider and cuts)     *
# 5. pythia_card        : present only if pythia has been run        *
# 6. pgs_card           : present only if pgs has been run           *
# 7. delphes_cards      : present only if delphes has been run       *
#                                                                    *
#                                                                    *
#*********************************************************************
-->
<MGVersion>
2.9.9
</MGVersion>
<MG5ProcCard>
<![CDATA[
#************************************************************
#*                     MadGraph5_aMC@NLO                    *
#*                                                          *
#*                *                       *                 *
#*                  *        * *        *                   *
#*                    * * * * 5 * * * *                     *
#*                  *        * *        *                   *
#*                *                       *                 *
#*                                                          *
#*                                                          *
#*         VERSION 2.9.9                 2022-02-25         *
#*                                                          *
#*    The MadGraph5_aMC@NLO Development Team - Find us at   *
#*    https://server06.fynu.ucl.ac.be/projects/madgraph     *
#*                                                          *
#************************************************************
#*                                                          *
#*               Command File for MadGraph5_aMC@NLO         *
#*                                                          *
#*     run as ./bin/mg5_aMC  filename                       *
#*                                                          *
#************************************************************
set group_subprocesses Auto
set ignore_six_quark_processes False
set low_mem_multicore_nlo_generation False
set complex_mass_scheme False
set gauge unitary
set loop_optimized_output True
set loop_color_flows False
set max_npoint_for_channel 0
set default_unset_couplings 99
set max_t_for_channel 99
set zerowidth_tchannel True
import model loop_sm-no_b_mass
define p = g u c d s u~ c~ d~ s~
define j = g u c d s u~ c~ d~ s~
define l+ = e+ mu+
define l- = e- mu-
define vl = ve vm vt
define vl~ = ve~ vm~ vt~
define p = 21 2 4 1 3 -2 -4 -1 -3 5 -5 # pass to 5 flavors
define j = p
define p = p b b~
define j = j b b~
generate p p > h [QCD]
output HToTauTauGamma_NLO_5f -nojpeg
]]>
</MG5ProcCard>
<MGProcCard>
#*********************************************************************
#                        MadGraph/MadEvent                           *
#                   http://madgraph.hep.uiuc.edu                     *
#                                                                    *
#                          proc_card.dat                             *
#*********************************************************************
#                                                                    *
#            This Files is generated by MADGRAPH 5                   *
#                                                                    *
# WARNING: This Files is generated for MADEVENT (compatibility issue)*
#          This files is NOT a valid MG4 proc_card.dat               *
#          Running this in MG4 will NEVER reproduce the result of MG5*
#                                                                    *
#*********************************************************************
#*********************************************************************
# Process(es) requested : mg2 input                                  *
#*********************************************************************
# Begin PROCESS # This is TAG. Do not modify this line
p p > h [QCD]           #Process
# Be carefull the coupling are here in MG5 convention
          
end_coup           # End the couplings input

done               # this tells MG there are no more procs
# End PROCESS  # This is TAG. Do not modify this line
#*********************************************************************
# Model information                                                  *
#*********************************************************************
# Begin MODEL  # This is TAG. Do not modify this line
loop_sm-no_b_mass
# End   MODEL  # This is TAG. Do not modify this line
#*********************************************************************
# Start multiparticle definitions                                    *
#*********************************************************************
# Begin MULTIPARTICLES # This is TAG. Do not modify this line

# End  MULTIPARTICLES # This is TAG. Do not modify this line
</MGProcCard>
<MGRunCard>
<![CDATA[
#*********************************************************************
#                       MadGraph5_aMC@NLO                            *
#                                                                    *
#                     run_card.dat MadEvent                          *
#                                                                    *
#  This file is used to set the parameters of the run.               *
#                                                                    *
#  Some notation/conventions:                                        *
#                                                                    *
#   Lines starting with a '# ' are info or comments                  *
#                                                                    *
#   mind the format:   value    = variable     ! comment             *
#                                                                    *
#   To display more options, you can type the command:               *
#      update to_full                                                *
#*********************************************************************
#                                                                    
#*********************************************************************
# Tag name for the run (one word)                                    *
#*********************************************************************
  tag_1	= run_tag ! name of the run 
#*********************************************************************
# Number of events and rnd seed                                      *
# Warning: Do not generate more than 1M events in a single run       *
#*********************************************************************
  5000	= nevents ! Number of unweighted events requested 
 234567 = iseed ! rnd seed (0=assigned automatically=default))
#*********************************************************************
# Collider type and energy                                           *
# lpp: 0=No PDF, 1=proton, -1=antiproton, 2=photon from proton,      *
#                3=photon from electron, 4=photon from muon          *
#*********************************************************************
  1	= lpp1 ! beam 1 type 
  1	= lpp2 ! beam 2 type
  6800.0	= ebeam1 ! beam 1 total energy in GeV
  6800.0	= ebeam2 ! beam 2 total energy in GeV
# To see polarised beam options: type "update beam_pol"

#*********************************************************************
# PDF CHOICE: this automatically fixes also alpha_s and its evol.    *
#*********************************************************************
  lhapdf	= pdlabel ! PDF set                                     
  325300	= lhaid ! if pdlabel=lhapdf, this is the lhapdf number
# To see heavy ion options: type "update ion_pdf"
#*********************************************************************
# Renormalization and factorization scales                           *
#*********************************************************************
  False	= fixed_ren_scale ! if .true. use fixed ren scale
  False	= fixed_fac_scale ! if .true. use fixed fac scale
  91.188	= scale ! fixed ren scale
  91.188	= dsqrt_q2fact1 ! fixed fact scale for pdf1
  91.188	= dsqrt_q2fact2 ! fixed fact scale for pdf2
  -1	= dynamical_scale_choice ! Choose one of the preselected dynamical choices
  1.0	= scalefact ! scale factor for event-by-event scales
#*********************************************************************
# Type and output format
#*********************************************************************
  True	= gridpack !True = setting up the grid pack
  -1.0	= time_of_flight ! threshold (in mm) below which the invariant livetime is not written (-1 means not written)
  average	= event_norm ! average/sum. Normalization of the weight in the LHEF
# To see MLM/CKKW  merging options: type "update MLM" or "update CKKW"

#*********************************************************************
#
#*********************************************************************
# Phase-Space Optimization strategy (basic options)
#*********************************************************************
  1	= nhel ! using helicities importance sampling or not.
                             ! 0: sum over helicity, 1: importance sampling
  2	= sde_strategy ! default integration strategy (hep-ph/2021.00773)
                             ! 1 is old strategy (using amp square)
			     ! 2 is new strategy (using only the denominator)
# To see advanced option for Phase-Space optimization: type "update psoptim"			     
#*********************************************************************
# Generation bias, check the wiki page below for more information:   *
#  'cp3.irmp.ucl.ac.be/projects/madgraph/wiki/LOEventGenerationBias' *
#*********************************************************************
  None	= bias_module ! Bias type of bias, [None, ptj_bias, -custom_folder-]
  {}	= bias_parameters ! Specifies the parameters of the module.
#
#*******************************                                                 
# Parton level cuts definition *
#*******************************                                     
#                                                                    
#
#*********************************************************************
# BW cutoff (M+/-bwcutoff*Gamma) ! Define on/off-shell for "$" and decay  
#*********************************************************************
  15.0	= bwcutoff ! (M+/-bwcutoff*Gamma)
#*********************************************************************
# Standard Cuts                                                      *
#*********************************************************************
# Minimum and maximum pt's (for max, -1 means no cut)                *
#*********************************************************************
  {}	= pt_min_pdg ! pt cut for other particles (use pdg code). Applied on particle and anti-particle
  {}	= pt_max_pdg ! pt cut for other particles (syntax e.g. {6: 100, 25: 50}) 
#
# For display option for energy cut in the partonic center of mass frame type 'update ecut'
#
#*********************************************************************
# Maximum and minimum absolute rapidity (for max, -1 means no cut)   *
#*********************************************************************
  {}	= eta_min_pdg ! rap cut for other particles (use pdg code). Applied on particle and anti-particle
  {}	= eta_max_pdg ! rap cut for other particles (syntax e.g. {6: 2.5, 23: 5})
#*********************************************************************
# Minimum and maximum DeltaR distance                                *
#*********************************************************************
#*********************************************************************
# Minimum and maximum invariant mass for pairs                       *
#*********************************************************************
  {}	= mxx_min_pdg ! min invariant mass of a pair of particles X/X~ (e.g. {6:250})
  {'default': False}	= mxx_only_part_antipart ! if True the invariant mass is applied only 
                       ! to pairs of particle/antiparticle and not to pairs of the same pdg codes.  
#*********************************************************************
# Inclusive cuts                                                     *
#*********************************************************************
  0.0	= ptheavy ! minimum pt for at least one heavy final state
#*********************************************************************
# maximal pdg code for quark to be considered as a light jet         *
# (otherwise b cuts are applied)                                     *
#*********************************************************************
  5	= maxjetflavor ! Maximum jet pdg code
#*********************************************************************
#
#*********************************************************************
# Store info for systematics studies                                 *
# WARNING: Do not use for interference type of computation           *
#*********************************************************************
  True	= use_syst ! Enable systematics studies
#
  None	= systematics_program ! none, systematics [python], SysCalc [depreceted, C++]
  ['--mur=0.5,1,2', '--muf=0.5,1,2', '--pdf=errorset']	= systematics_arguments ! see: https://cp3.irmp.ucl.ac.be/projects/madgraph/wiki/Systematics#Systematicspythonmodule
# Syscalc is deprecated but to see the associate options type'update syscalc'
]]>
</MGRunCard>
<slha>
######################################################################
## PARAM_CARD AUTOMATICALY GENERATED BY MG5 FOLLOWING UFO MODEL   ####
######################################################################
##                                                                  ##
##  Width set on Auto will be computed following the information    ##
##        present in the decay.py files of the model.               ##
##        See  arXiv:1402.1178 for more details.                    ##
##                                                                  ##
######################################################################

###################################
## INFORMATION FOR CKMBLOCK
###################################
Block ckmblock 
    1 2.277360e-01 # cabi 

###################################
## INFORMATION FOR MASS
###################################
Block mass 
    1 5.040000e-03 # MD 
    2 2.550000e-03 # MU 
    3 1.010000e-01 # MS 
    4 1.270000e+00 # MC 
    5 4.700000e+00 # MB 
    6 1.720000e+02 # MT 
   11 5.110000e-04 # Me 
   13 1.056600e-01 # MMU 
   15 1.777000e+00 # MTA 
   23 9.118760e+01 # MZ 
   25 1.250000e+02 # MH 
## Dependent parameters, given by model restrictions.
## Those values should be edited following the 
## analytical expression. MG5 ignores those values 
## but they are important for interfacing the output of MG5
## to external program such as Pythia.
  12 0.000000e+00 # ve : 0.0 
  14 0.000000e+00 # vm : 0.0 
  16 0.000000e+00 # vt : 0.0 
  21 0.000000e+00 # g : 0.0 
  22 0.000000e+00 # a : 0.0 
  24 7.982436e+01 # w+ : cmath.sqrt(MZ__exp__2/2. + cmath.sqrt(MZ__exp__4/4. - (aEW*cmath.pi*MZ__exp__2)/(Gf*sqrt__2))) 

###################################
## INFORMATION FOR SMINPUTS
###################################
Block sminputs 
    1 1.279000e+02 # aEWM1 
    2 1.166370e-05 # Gf 
    3 1.184000e-01 # aS (Note that Parameter not used if you use a PDF set) 

###################################
## INFORMATION FOR YUKAWA
###################################
Block yukawa 
    1 5.040000e-03 # ymdo 
    2 2.550000e-03 # ymup 
    3 1.010000e-01 # yms 
    4 1.270000e+00 # ymc 
    5 4.700000e+00 # ymb 
    6 1.720000e+02 # ymt 
   11 5.110000e-04 # yme 
   13 1.056600e-01 # ymm 
   15 1.777000e+00 # ymtau 

###################################
## INFORMATION FOR DECAY
###################################
DECAY   6 1.508336e+00 # WT 
DECAY  23 2.495200e+00 # WZ 
DECAY  24 2.085000e+00 # WW 
DECAY  25 4.070000e-03 # WH 
## Dependent parameters, given by model restrictions.
## Those values should be edited following the 
## analytical expression. MG5 ignores those values 
## but they are important for interfacing the output of MG5
## to external program such as Pythia.
DECAY  1 0.000000e+00 # d : 0.0 
DECAY  2 0.000000e+00 # u : 0.0 
DECAY  3 0.000000e+00 # s : 0.0 
DECAY  4 0.000000e+00 # c : 0.0 
DECAY  5 0.000000e+00 # b : 0.0 
DECAY  11 0.000000e+00 # e- : 0.0 
DECAY  12 0.000000e+00 # ve : 0.0 
DECAY  13 0.000000e+00 # mu- : 0.0 
DECAY  14 0.000000e+00 # vm : 0.0 
DECAY  15 0.000000e+00 # ta- : 0.0 
DECAY  16 0.000000e+00 # vt : 0.0 
DECAY  21 0.000000e+00 # g : 0.0 
DECAY  22 0.000000e+00 # a : 0.0
</slha>
<MGGenerationInfo>
#  Number of Events        :       1000
#  Integrated weight (pb)  :       15.057
</MGGenerationInfo>
<slha_original>
######################################################################
## PARAM_CARD AUTOMATICALY GENERATED BY MG5 FOLLOWING UFO MODEL   ####
######################################################################
##                                                                  ##
##  Width set on Auto will be computed following the information    ##
##        present in the decay.py files of the model.               ##
##        See  arXiv:1402.1178 for more details.                    ##
##                                                                  ##
######################################################################

###################################
## INFORMATION FOR MASS
###################################
Block mass 
    6 1.730000e+02 # MT 
   15 1.777000e+00 # MTA 
   23 9.118800e+01 # MZ 
   25 1.250000e+02 # MH 
## Dependent parameters, given by model restrictions.
## Those values should be edited following the 
## analytical expression. MG5 ignores those values 
## but they are important for interfacing the output of MG5
## to external program such as Pythia.
  1 0.000000e+00 # d : 0.0 
  2 0.000000e+00 # u : 0.0 
  3 0.000000e+00 # s : 0.0 
  4 0.000000e+00 # c : 0.0 
  5 0.000000e+00 # b : 0.0 
  11 0.000000e+00 # e- : 0.0 
  12 0.000000e+00 # ve : 0.0 
  13 0.000000e+00 # mu- : 0.0 
  14 0.000000e+00 # vm : 0.0 
  16 0.000000e+00 # vt : 0.0 
  21 0.000000e+00 # g : 0.0 
  22 0.000000e+00 # a : 0.0 
  24 8.041900e+01 # w+ : cmath.sqrt(MZ__exp__2/2. + cmath.sqrt(MZ__exp__4/4. - (aEW*cmath.pi*MZ__exp__2)/(Gf*sqrt__2))) 

###################################
## INFORMATION FOR SMINPUTS
###################################
Block sminputs 
    1 1.325070e+02 # aEWM1 
    2 1.166390e-05 # Gf 
    3 1.180000e-01 # aS (Note that Parameter not used if you use a PDF set) 

###################################
## INFORMATION FOR YUKAWA
###################################
Block yukawa 
    6 1.730000e+02 # ymt 
   15 1.777000e+00 # ymtau 

###################################
## INFORMATION FOR DECAY
###################################
DECAY   6 1.491500e+00 # WT 
DECAY  23 2.441404e+00 # WZ 
DECAY  24 2.047600e+00 # WW 
DECAY  25 6.382339e-03 # WH 
## Dependent parameters, given by model restrictions.
## Those values should be edited following the 
## analytical expression. MG5 ignores those values 
## but they are important for interfacing the output of MG5
## to external program such as Pythia.
DECAY  1 0.000000e+00 # d : 0.0 
DECAY  2 0.000000e+00 # u : 0.0 
DECAY  3 0.000000e+00 # s : 0.0 
DECAY  4 0.000000e+00 # c : 0.0 
DECAY  5 0.000000e+00 # b : 0.0 
DECAY  11 0.000000e+00 # e- : 0.0 
DECAY  12 0.000000e+00 # ve : 0.0 
DECAY  13 0.000000e+00 # mu- : 0.0 
DECAY  14 0.000000e+00 # vm : 0.0 
DECAY  15 0.000000e+00 # ta- : 0.0 
DECAY  16 0.000000e+00 # vt : 0.0 
DECAY  21 0.000000e+00 # g : 0.0 
DECAY  22 0.000000e+00 # a : 0.0 
#===========================================================
# QUANTUM NUMBERS OF NEW STATE(S) (NON SM PDG CODE)
#===========================================================

Block QNUMBERS 82  # gh 
        1 0  # 3 times electric charge
        2 1  # number of spin states (2S+1)
        3 8  # colour rep (1: singlet, 3: triplet, 8: octet)
        4 1  # Particle/Antiparticle distinction (0=own anti)
</slha_original>
<madspin>
set seed 460656345
import /afs/cern.ch/user/b/ballmond/public/genproductions/bin/MadGraph5_aMCatNLO/HToTauTauGamma_NLO_5f/HToTauTauGamma_NLO_5f_gridpack/work/unweighted_events.lhe.gz
import model DipoleMomentMid_UFO --bypass_check
set ms_dir ./madspingrid
set Nevents_for_max_weight 5 
set max_weight_ps_point 400 
set max_running_process 1
set spinmode=none
define l+=ta+
define l-=ta-
decay h > l+ l- a
launch
</madspin>
</header>
<init>
2212 2212 6.800000e+03 6.800000e+03 0 0 325300 325300 -4 1
   +4.1053447e-01 +4.6678290e-04 +4.1053447e-01 0
<generator name='MadGraph5_aMC@NLO' version='2.9.9'>please cite 1405.0301 </generator>
</init>
<event>
 6      0 +4.1053447e-01 1.25000000e+02 7.54677100e-03 1.12640300e-01
       21 -1    0    0  502  501 +0.0000000000e+00 +0.0000000000e+00 +3.8122521958e+02 3.8122521958e+02 0.0000000000e+00 0.0000e+00 1.0000e+00
       21 -1    0    0  501  502 -0.0000000000e+00 -0.0000000000e+00 -1.0246567644e+01 1.0246567644e+01 0.0000000000e+00 0.0000e+00 1.0000e+00
       25  2    1    2    0    0 +0.0000000000e+00 +0.0000000000e+00 +3.7097865194e+02 3.9147178723e+02 1.2500000000e+02 0.0000e+00 0.0000e+00
      -15  1    3    3    0    0 -1.4314167768e+01 +1.1240895516e+01 -1.6800684058e+00 1.8363918147e+01 1.7770000000e+00 0.0000e+00 1.0000e+00
       15  1    3    3    0    0 +1.4242211837e+01 -1.1210738842e+01 +3.7173678085e+02 3.7218263424e+02 1.7770000000e+00 0.0000e+00 1.0000e+00
       22  1    3    3    0    0 +7.1955931410e-02 -3.0156674342e-02 +9.2193947025e-01 9.2523481770e-01 0.0000000000e+00 0.0000e+00 1.0000e+00
<mgrwt>
<rscale>  2 0.12500000E+03</rscale>
<asrwt>0</asrwt>
<pdfrwt beam="1">  1       21 0.56062523E-01 0.12500000E+03</pdfrwt>
<pdfrwt beam="2">  1       21 0.15068484E-02 0.12500000E+03</pdfrwt>
<totfact> 0.54451089E+06</totfact>
</mgrwt>
</event>
<event>
 6      0 +4.1053447e-01 1.25000000e+02 7.54677100e-03 1.12640300e-01
       21 -1    0    0  502  501 +0.0000000000e+00 +0.0000000000e+00 +5.5646656211e+01 5.5646656211e+01 0.0000000000e+00 0.0000e+00 -1.0000e+00
       21 -1    0    0  501  502 -0.0000000000e+00 -0.0000000000e+00 -7.0197389493e+01 7.0197389493e+01 0.0000000000e+00 0.0000e+00 -1.0000e+00
       25  2    1    2    0    0 +0.0000000000e+00 +0.0000000000e+00 -1.4550733282e+01 1.2584404570e+02 1.2500000000e+02 0.0000e+00 0.0000e+00
      -15  1    3    3    0    0 -3.3940467027e+01 -2.6603038245e+01 -5.2782440935e+01 6.8182261226e+01 1.7770000000e+00 0.0000e+00 -1.0000e+00
       15  1    3    3    0    0 +3.3892490558e+01 +2.6536700313e+01 +3.8139522935e+01 5.7538494232e+01 1.7770000000e+00 0.0000e+00 -1.0000e+00
       22  1    3    3    0    0 +4.7976468785e-02 +6.6337931315e-02 +9.2184717172e-02 1.2329024604e-01 0.0000000000e+00 0.0000e+00 1.0000e+00
<mgrwt>
<rscale>  2 0.12500000E+03</rscale>
<asrwt>0</asrwt>
<pdfrwt beam="1">  1       21 0.81833318E-02 0.12500000E+03</pdfrwt>
<pdfrwt beam="2">  1       21 0.10323146E-01 0.12500000E+03</pdfrwt>
<totfact> 0.88840066E+06</totfact>
</mgrwt>
</event>
<event>
 6      0 +4.1053447e-01 1.25000000e+02 7.54677100e-03 1.12640300e-01
       21 -1    0    0  502  501 +0.0000000000e+00 +0.0000000000e+00 +4.7600521663e+01 4.7600521663e+01 0.0000000000e+00 0.0000e+00 -1.0000e+00
       21 -1    0    0  501  502 -0.0000000000e+00 -0.0000000000e+00 -8.2063176274e+01 8.2063176274e+01 0.0000000000e+00 0.0000e+00 -1.0000e+00
       25  2    1    2    0    0 +0.0000000000e+00 +0.0000000000e+00 -3.4462654611e+01 1.2966369794e+02 1.2500000000e+02 0.0000e+00 0.0000e+00
      -15  1    3    3    0    0 -3.0659109355e+01 -1.2763399231e+00 -7.3681150622e+01 7.9835328746e+01 1.7770000000e+00 0.0000e+00 1.0000e+00
       15  1    3    3    0    0 +3.0659127985e+01 +1.2763396521e+00 +3.9218533104e+01 4.9828327682e+01 1.7770000000e+00 0.0000e+00 1.0000e+00
       22  1    3    3    0    0 -1.8630152606e-05 +2.7093743873e-07 -3.7092790349e-05 4.1509409644e-05 0.0000000000e+00 0.0000e+00 -1.0000e+00
<mgrwt>
<rscale>  2 0.12500000E+03</rscale>
<asrwt>0</asrwt>
<pdfrwt beam="1">  1       21 0.70000768E-02 0.12500000E+03</pdfrwt>
<pdfrwt beam="2">  1       21 0.12068114E-01 0.12500000E+03</pdfrwt>
<totfact> 0.88159227E+06</totfact>
</mgrwt>
</event>
<event>
 6      0 +4.1053447e-01 1.25000000e+02 7.54677100e-03 1.12640300e-01
       21 -1    0    0  502  501 +0.0000000000e+00 +0.0000000000e+00 +1.2910752982e+01 1.2910752982e+01 0.0000000000e+00 0.0000e+00 -1.0000e+00
       21 -1    0    0  501  502 -0.0000000000e+00 -0.0000000000e+00 -3.0255787602e+02 3.0255787602e+02 0.0000000000e+00 0.0000e+00 -1.0000e+00
       25  2    1    2    0    0 +0.0000000000e+00 +0.0000000000e+00 -2.8964712304e+02 3.1546862900e+02 1.2500000000e+02 0.0000e+00 0.0000e+00
      -15  1    3    3    0    0 +3.8580280730e+01 -3.0228963163e+01 -2.4259181216e+02 2.4749984511e+02 1.7770000000e+00 0.0000e+00 -1.0000e+00
       15  1    3    3    0    0 -3.8579827439e+01 +3.0229095428e+01 -4.7050745250e+01 6.7964193906e+01 1.7770000000e+00 0.0000e+00 -1.0000e+00
       22  1    3    3    0    0 -4.5329057602e-04 -1.3226513620e-04 -4.5656494058e-03 4.5900022777e-03 0.0000000000e+00 0.0000e+00 -1.0000e+00
<mgrwt>
<rscale>  2 0.12500000E+03</rscale>
<asrwt>0</asrwt>
<pdfrwt beam="1">  1       21 0.18986400E-02 0.12500000E+03</pdfrwt>
<pdfrwt beam="2">  1       21 0.44493808E-01 0.12500000E+03</pdfrwt>
<totfact> 0.62205336E+06</totfact>
</mgrwt>
</event>
<event>
 6      0 +4.1053447e-01 1.25000000e+02 7.54677100e-03 1.12640300e-01
       21 -1    0    0  502  501 +0.0000000000e+00 +0.0000000000e+00 +4.5636952005e+00 4.5636952005e+00 0.0000000000e+00 0.0000e+00 1.0000e+00
       21 -1    0    0  501  502 -0.0000000000e+00 -0.0000000000e+00 -8.5594015998e+02 8.5594015998e+02 0.0000000000e+00 0.0000e+00 1.0000e+00
       25  2    1    2    0    0 +0.0000000000e+00 +0.0000000000e+00 -8.5137646478e+02 8.6050385518e+02 1.2500000000e+02 0.0000e+00 0.0000e+00
      -15  1    3    3    0    0 +5.6834938232e+01 -2.5186796218e+01 -3.8297156854e+02 3.8798835672e+02 1.7770000000e+00 0.0000e+00 1.0000e+00
       15  1    3    3    0    0 -5.6831689581e+01 +2.5184806140e+01 -4.6837902195e+02 4.7248934520e+02 1.7770000000e+00 0.0000e+00 1.0000e+00
       22  1    3    3    0    0 -3.2486507332e-03 +1.9900776517e-03 -2.5874337885e-02 2.6153307662e-02 0.0000000000e+00 0.0000e+00 1.0000e+00
<mgrwt>
<rscale>  2 0.12500000E+03</rscale>
<asrwt>0</asrwt>
<pdfrwt beam="1">  1       21 0.67113139E-03 0.12500000E+03</pdfrwt>
<pdfrwt beam="2">  1       21 0.12587360E+00 0.12500000E+03</pdfrwt>
<totfact> 0.25870873E+06</totfact>
</mgrwt>
</event>
<event>
 6      0 +4.1053447e-01 1.25000000e+02 7.54677100e-03 1.12640300e-01
       21 -1    0    0  502  501 +0.0000000000e+00 +0.0000000000e+00 +1.5811880896e+02 1.5811880896e+02 0.0000000000e+00 0.0000e+00 -1.0000e+00
       21 -1    0    0  501  502 -0.0000000000e+00 -0.0000000000e+00 -2.4704524564e+01 2.4704524564e+01 0.0000000000e+00 0.0000e+00 -1.0000e+00
       25  2    1    2    0    0 +0.0000000000e+00 +0.0000000000e+00 +1.3341428440e+02 1.8282333353e+02 1.2500000000e+02 0.0000e+00 0.0000e+00
      -15  1    3    3    0    0 -2.7888519734e+00 -5.9936616363e+01 +4.1554540193e+01 7.3007624369e+01 1.7770000000e+00 0.0000e+00 1.0000e+00
       15  1    3    3    0    0 +1.9952206975e+00 +5.8004695748e+01 +8.8090514487e+01 1.0550650267e+02 1.7770000000e+00 0.0000e+00 1.0000e+00
       22  1    3    3    0    0 +7.9363127591e-01 +1.9319206148e+00 +3.7692297161e+00 4.3092064835e+00 0.0000000000e+00 0.0000e+00 -1.0000e+00
<mgrwt>
<rscale>  2 0.12500000E+03</rscale>
<asrwt>0</asrwt>
<pdfrwt beam="1">  1       21 0.23252766E-01 0.12500000E+03</pdfrwt>
<pdfrwt beam="2">  1       21 0.36330184E-02 0.12500000E+03</pdfrwt>
<totfact> 0.79376201E+06</totfact>
</mgrwt>
</event>
<event>
 6      0 +4.1053447e-01 1.25000000e+02 7.54677100e-03 1.12640300e-01
       21 -1    0    0  502  501 +0.0000000000e+00 +0.0000000000e+00 +2.0748289912e+01 2.0748289912e+01 0.0000000000e+00 0.0000e+00 1.0000e+00
       21 -1    0    0  501  502 -0.0000000000e+00 -0.0000000000e+00 -1.8826852799e+02 1.8826852799e+02 0.0000000000e+00 0.0000e+00 1.0000e+00
       25  2    1    2    0    0 +0.0000000000e+00 +0.0000000000e+00 -1.6752023808e+02 2.0901681790e+02 1.2500000000e+02 0.0000e+00 0.0000e+00
      -15  1    3    3    0    0 -3.1516125228e+01 -5.3277025026e+01 -9.7887897214e+01 1.1583136749e+02 1.7770000000e+00 0.0000e+00 -1.0000e+00
       15  1    3    3    0    0 +3.1516125228e+01 +5.3277025026e+01 -6.9632340872e+01 9.3185450417e+01 1.7770000000e+00 0.0000e+00 -1.0000e+00
       22  1    3    3    0    0 +1.9108952855e-10 +7.6419001027e-11 -9.1310956056e-10 9.3601503259e-10 0.0000000000e+00 0.0000e+00 1.0000e+00
<mgrwt>
<rscale>  2 0.12500000E+03</rscale>
<asrwt>0</asrwt>
<pdfrwt beam="1">  1       21 0.30512189E-02 0.12500000E+03</pdfrwt>
<pdfrwt beam="2">  1       21 0.27686550E-01 0.12500000E+03</pdfrwt>
<totfact> 0.75523297E+06</totfact>
</mgrwt>
</event>
<event>
 6      0 +4.1053447e-01 1.25000000e+02 7.54677100e-03 1.12640300e-01
       21 -1    0    0  502  501 +0.0000000000e+00 +0.0000000000e+00 +4.1789204467e+01 4.1789204467e+01 0.0000000000e+00 0.0000e+00 1.0000e+00
       21 -1    0    0  501  502 -0.0000000000e+00 -0.0000000000e+00 -9.3475098410e+01 9.3475098410e+01 0.0000000000e+00 0.0000e+00 1.0000e+00
       25  2    1    2    0    0 +0.0000000000e+00 +0.0000000000e+00 -5.1685893944e+01 1.3526430288e+02 1.2500000000e+02 0.0000e+00 0.0000e+00
      -15  1    3    3    0    0 +1.5268596934e+01 -4.3351810274e+01 -7.1624028596e+01 8.5121493805e+01 1.7770000000e+00 0.0000e+00 1.0000e+00
       15  1    3    3    0    0 -1.5268737784e+01 +4.3353336451e+01 +1.9944920262e+01 5.0135852524e+01 1.7770000000e+00 0.0000e+00 1.0000e+00
       22  1    3    3    0    0 +1.4084983214e-04 -1.5261771642e-03 -6.7856102094e-03 6.9565480898e-03 0.0000000000e+00 0.0000e+00 -1.0000e+00
<mgrwt>
<rscale>  2 0.12500000E+03</rscale>
<asrwt>0</asrwt>
<pdfrwt beam="1">  1       21 0.61454713E-02 0.12500000E+03</pdfrwt>
<pdfrwt beam="2">  1       21 0.13746338E-01 0.12500000E+03</pdfrwt>
<totfact> 0.87159701E+06</totfact>
</mgrwt>
</event>
<event>
 6      0 +4.1053447e-01 1.25000000e+02 7.54677100e-03 1.12640300e-01
       21 -1    0    0  502  501 +0.0000000000e+00 +0.0000000000e+00 +1.4724280401e+01 1.4724280401e+01 0.0000000000e+00 0.0000e+00 1.0000e+00
       21 -1    0    0  501  502 -0.0000000000e+00 -0.0000000000e+00 -2.6529310049e+02 2.6529310049e+02 0.0000000000e+00 0.0000e+00 1.0000e+00
       25  2    1    2    0    0 +0.0000000000e+00 +0.0000000000e+00 -2.5056882009e+02 2.8001738089e+02 1.2500000000e+02 0.0000e+00 0.0000e+00
      -15  1    3    3    0    0 +1.0786293368e+01 -3.9162531328e+01 -2.3161521468e+02 2.3515699731e+02 1.7770000000e+00 0.0000e+00 -1.0000e+00
       15  1    3    3    0    0 -1.0782853740e+01 +3.9152140403e+01 -1.8946929762e+01 4.4847563026e+01 1.7770000000e+00 0.0000e+00 -1.0000e+00
       22  1    3    3    0    0 -3.4396272782e-03 +1.0390925437e-02 -6.6756530201e-03 1.2820558119e-02 0.0000000000e+00 0.0000e+00 1.0000e+00
<mgrwt>
<rscale>  2 0.12500000E+03</rscale>
<asrwt>0</asrwt>
<pdfrwt beam="1">  1       21 0.21653354E-02 0.12500000E+03</pdfrwt>
<pdfrwt beam="2">  1       21 0.39013690E-01 0.12500000E+03</pdfrwt>
<totfact> 0.66289318E+06</totfact>
</mgrwt>
</event>
<event>
 6      0 +4.1053447e-01 1.25000000e+02 7.54677100e-03 1.12640300e-01
       21 -1    0    0  502  501 +0.0000000000e+00 +0.0000000000e+00 +4.7636625729e+01 4.7636625729e+01 0.0000000000e+00 0.0000e+00 -1.0000e+00
       21 -1    0    0  501  502 -0.0000000000e+00 -0.0000000000e+00 -8.2000980133e+01 8.2000980133e+01 0.0000000000e+00 0.0000e+00 -1.0000e+00
       25  2    1    2    0    0 +0.0000000000e+00 +0.0000000000e+00 -3.4364354404e+01 1.2963760586e+02 1.2500000000e+02 0.0000e+00 0.0000e+00
      -15  1    3    3    0    0 -3.6838745995e+00 -2.7862382550e+01 +4.0684044396e+01 4.9479616922e+01 1.7770000000e+00 0.0000e+00 1.0000e+00
       15  1    3    3    0    0 +3.6838746590e+00 +2.7862382533e+01 -7.5048398768e+01 8.0157988870e+01 1.7770000000e+00 0.0000e+00 1.0000e+00
       22  1    3    3    0    0 -5.9543311208e-08 +1.6916245301e-08 -3.1541021240e-08 6.9472305890e-08 0.0000000000e+00 0.0000e+00 1.0000e+00
<mgrwt>
<rscale>  2 0.12500000E+03</rscale>
<asrwt>0</asrwt>
<pdfrwt beam="1">  1       21 0.70053862E-02 0.12500000E+03</pdfrwt>
<pdfrwt beam="2">  1       21 0.12058968E-01 0.12500000E+03</pdfrwt>
<totfact> 0.88163969E+06</totfact>
</mgrwt>
</event>
<event>
 6      0 +4.1053447e-01 1.25000000e+02 7.54677100e-03 1.12640300e-01
       21 -1    0    0  502  501 +0.0000000000e+00 +0.0000000000e+00 +3.1489682095e+01 3.1489682095e+01 0.0000000000e+00 0.0000e+00 1.0000e+00
       21 -1    0    0  501  502 -0.0000000000e+00 -0.0000000000e+00 -1.2404856893e+02 1.2404856893e+02 0.0000000000e+00 0.0000e+00 1.0000e+00
       25  2    1    2    0    0 +0.0000000000e+00 +0.0000000000e+00 -9.2558886834e+01 1.5553825103e+02 1.2500000000e+02 0.0000e+00 0.0000e+00
      -15  1    3    3    0    0 +3.0488623412e+01 +2.5204269358e+01 -5.8968006888e+01 7.1029535524e+01 1.7770000000e+00 0.0000e+00 1.0000e+00
       15  1    3    3    0    0 -4.1467243188e+01 -3.5794651680e+01 -8.9584612148e+00 5.5535584113e+01 1.7770000000e+00 0.0000e+00 1.0000e+00
       22  1    3    3    0    0 +1.0978619776e+01 +1.0590382322e+01 -2.4632418727e+01 2.8973131385e+01 0.0000000000e+00 0.0000e+00 1.0000e+00
<mgrwt>
<rscale>  2 0.12500000E+03</rscale>
<asrwt>0</asrwt>
<pdfrwt beam="1">  1       21 0.46308356E-02 0.12500000E+03</pdfrwt>
<pdfrwt beam="2">  1       21 0.18242437E-01 0.12500000E+03</pdfrwt>
<totfact> 0.83707014E+06</totfact>
</mgrwt>
</event>
<event>
 6      0 +4.1053447e-01 1.25000000e+02 7.54677100e-03 1.12640300e-01
       21 -1    0    0  502  501 +0.0000000000e+00 +0.0000000000e+00 +3.7867036713e+02 3.7867036713e+02 0.0000000000e+00 0.0000e+00 -1.0000e+00
       21 -1    0    0  501  502 -0.0000000000e+00 -0.0000000000e+00 -1.0315700248e+01 1.0315700248e+01 0.0000000000e+00 0.0000e+00 -1.0000e+00
       25  2    1    2    0    0 +0.0000000000e+00 +0.0000000000e+00 +3.6835466688e+02 3.8898606737e+02 1.2500000000e+02 0.0000e+00 0.0000e+00
      -15  1    3    3    0    0 +4.2971011634e+01 +1.0302260059e+01 +2.6284994842e+02 2.6654436313e+02 1.7770000000e+00 0.0000e+00 -1.0000e+00
       15  1    3    3    0    0 -4.6917376996e+01 -6.3112341447e+00 +5.9309781725e+01 7.5907047616e+01 1.7770000000e+00 0.0000e+00 -1.0000e+00
       22  1    3    3    0    0 +3.9463653614e+00 -3.9910259143e+00 +4.6194936788e+01 4.6534656679e+01 0.0000000000e+00 0.0000e+00 -1.0000e+00
<mgrwt>
<rscale>  2 0.12500000E+03</rscale>
<asrwt>0</asrwt>
<pdfrwt beam="1">  1       21 0.55686809E-01 0.12500000E+03</pdfrwt>
<pdfrwt beam="2">  1       21 0.15170150E-02 0.12500000E+03</pdfrwt>
<totfact> 0.54685684E+06</totfact>
</mgrwt>
</event>
<event>
 6      0 +4.1053447e-01 1.25000000e+02 7.54677100e-03 1.12640300e-01
       21 -1    0    0  502  501 +0.0000000000e+00 +0.0000000000e+00 +8.0651851250e+02 8.0651851250e+02 0.0000000000e+00 0.0000e+00 1.0000e+00
       21 -1    0    0  501  502 -0.0000000000e+00 -0.0000000000e+00 -4.8433482176e+00 4.8433482176e+00 0.0000000000e+00 0.0000e+00 1.0000e+00
       25  2    1    2    0    0 +0.0000000000e+00 +0.0000000000e+00 +8.0167516428e+02 8.1136186072e+02 1.2500000000e+02 0.0000e+00 0.0000e+00
      -15  1    3    3    0    0 -6.2003583985e+01 +6.1011385714e+00 +3.7079390340e+02 3.7599593728e+02 1.7770000000e+00 0.0000e+00 -1.0000e+00
       15  1    3    3    0    0 +6.2003585046e+01 -6.1011385878e+00 +4.3088125510e+02 4.3536591757e+02 1.7770000000e+00 0.0000e+00 -1.0000e+00
       22  1    3    3    0    0 -1.0608009869e-06 +1.6478490465e-08 +5.5790035066e-06 5.6789832189e-06 0.0000000000e+00 0.0000e+00 -1.0000e+00
<mgrwt>
<rscale>  2 0.12500000E+03</rscale>
<asrwt>0</asrwt>
<pdfrwt beam="1">  1       21 0.11860557E+00 0.12500000E+03</pdfrwt>
<pdfrwt beam="2">  1       21 0.71225765E-03 0.12500000E+03</pdfrwt>
<totfact> 0.27812710E+06</totfact>
</mgrwt>
</event>
<event>
 6      0 +4.1053447e-01 1.25000000e+02 7.54677100e-03 1.12640300e-01
       21 -1    0    0  502  501 +0.0000000000e+00 +0.0000000000e+00 +2.6162653041e+02 2.6162653041e+02 0.0000000000e+00 0.0000e+00 -1.0000e+00
       21 -1    0    0  501  502 -0.0000000000e+00 -0.0000000000e+00 -1.4930634114e+01 1.4930634114e+01 0.0000000000e+00 0.0000e+00 -1.0000e+00
       25  2    1    2    0    0 +0.0000000000e+00 +0.0000000000e+00 +2.4669589629e+02 2.7655716452e+02 1.2500000000e+02 0.0000e+00 0.0000e+00
      -15  1    3    3    0    0 -1.0735301741e+01 -6.0667344462e+01 +1.0042808049e+02 1.1783348619e+02 1.7770000000e+00 0.0000e+00 1.0000e+00
       15  1    3    3    0    0 +1.0735288804e+01 +6.0667332248e+01 +1.4626772729e+02 1.5872358805e+02 1.7770000000e+00 0.0000e+00 1.0000e+00
       22  1    3    3    0    0 +1.2937132586e-05 +1.2214518882e-05 +8.8497106315e-05 9.0267943906e-05 0.0000000000e+00 0.0000e+00 -1.0000e+00
<mgrwt>
<rscale>  2 0.12500000E+03</rscale>
<asrwt>0</asrwt>
<pdfrwt beam="1">  1       21 0.38474487E-01 0.12500000E+03</pdfrwt>
<pdfrwt beam="2">  1       21 0.21956817E-02 0.12500000E+03</pdfrwt>
<totfact> 0.66703764E+06</totfact>
</mgrwt>
</event>
<event>
 6      0 +4.1053447e-01 1.25000000e+02 7.54677100e-03 1.12640300e-01
       21 -1    0    0  502  501 +0.0000000000e+00 +0.0000000000e+00 +1.8622613484e+01 1.8622613484e+01 0.0000000000e+00 0.0000e+00 1.0000e+00
       21 -1    0    0  501  502 -0.0000000000e+00 -0.0000000000e+00 -2.0975842104e+02 2.0975842104e+02 0.0000000000e+00 0.0000e+00 1.0000e+00
       25  2    1    2    0    0 +0.0000000000e+00 +0.0000000000e+00 -1.9113580755e+02 2.2838103452e+02 1.2500000000e+02 0.0000e+00 0.0000e+00
      -15  1    3    3    0    0 -5.9049489565e+01 +2.0394397245e+01 -9.6599188603e+01 1.1505361630e+02 1.7770000000e+00 0.0000e+00 -1.0000e+00
       15  1    3    3    0    0 +5.9049489576e+01 -2.0394397218e+01 -9.4536618655e+01 1.1332741792e+02 1.7770000000e+00 0.0000e+00 -1.0000e+00
       22  1    3    3    0    0 -1.1896265960e-08 -2.7672068019e-08 -2.8785523454e-07 2.8942684835e-07 0.0000000000e+00 0.0000e+00 -1.0000e+00
<mgrwt>
<rscale>  2 0.12500000E+03</rscale>
<asrwt>0</asrwt>
<pdfrwt beam="1">  1       21 0.27386197E-02 0.12500000E+03</pdfrwt>
<pdfrwt beam="2">  1       21 0.30846826E-01 0.12500000E+03</pdfrwt>
<totfact> 0.72855052E+06</totfact>
</mgrwt>
</event>
<event>
 6      0 +4.1053447e-01 1.25000000e+02 7.54677100e-03 1.12640300e-01
       21 -1    0    0  502  501 +0.0000000000e+00 +0.0000000000e+00 +4.5052774171e+01 4.5052774171e+01 0.0000000000e+00 0.0000e+00 1.0000e+00
       21 -1    0    0  501  502 -0.0000000000e+00 -0.0000000000e+00 -8.6703872777e+01 8.6703872777e+01 0.0000000000e+00 0.0000e+00 1.0000e+00
       25  2    1    2    0    0 +0.0000000000e+00 +0.0000000000e+00 -4.1651098606e+01 1.3175664695e+02 1.2500000000e+02 0.0000e+00 0.0000e+00
      -15  1    3    3    0    0 +5.5912359521e+01 -2.2494038898e+01 -3.8174838225e+01 7.1362803586e+01 1.7770000000e+00 0.0000e+00 -1.0000e+00
       15  1    3    3    0    0 -5.5912361277e+01 +2.2494039083e+01 -3.4762589734e+00 6.0393841105e+01 1.7770000000e+00 0.0000e+00 -1.0000e+00
       22  1    3    3    0    0 +1.7564431769e-06 -1.8568588515e-07 -1.4083327284e-06 2.2589760856e-06 0.0000000000e+00 0.0000e+00 -1.0000e+00
<mgrwt>
<rscale>  2 0.12500000E+03</rscale>
<asrwt>0</asrwt>
<pdfrwt beam="1">  1       21 0.66254080E-02 0.12500000E+03</pdfrwt>
<pdfrwt beam="2">  1       21 0.12750569E-01 0.12500000E+03</pdfrwt>
<totfact> 0.87779818E+06</totfact>
</mgrwt>
</event>
<event>
 6      0 +4.1053447e-01 1.25000000e+02 7.54677100e-03 1.12640300e-01
       21 -1    0    0  502  501 +0.0000000000e+00 +0.0000000000e+00 +2.5925490904e+01 2.5925490904e+01 0.0000000000e+00 0.0000e+00 1.0000e+00
       21 -1    0    0  501  502 -0.0000000000e+00 -0.0000000000e+00 -1.5067217105e+02 1.5067217105e+02 0.0000000000e+00 0.0000e+00 1.0000e+00
       25  2    1    2    0    0 +0.0000000000e+00 +0.0000000000e+00 -1.2474668015e+02 1.7659766195e+02 1.2500000000e+02 0.0000e+00 0.0000e+00
      -15  1    3    3    0    0 -3.7792456060e+01 +4.6860253235e+01 -3.8777906984e+01 7.1631256218e+01 1.7770000000e+00 0.0000e+00 -1.0000e+00
       15  1    3    3    0    0 +3.7792483616e+01 -4.6860255022e+01 -8.5968733553e+01 1.0496635745e+02 1.7770000000e+00 0.0000e+00 -1.0000e+00
       22  1    3    3    0    0 -2.7555912538e-05 +1.7861761826e-06 -3.9622048897e-05 4.8295191272e-05 0.0000000000e+00 0.0000e+00 1.0000e+00
<mgrwt>
<rscale>  2 0.12500000E+03</rscale>
<asrwt>0</asrwt>
<pdfrwt beam="1">  1       21 0.38125723E-02 0.12500000E+03</pdfrwt>
<pdfrwt beam="2">  1       21 0.22157672E-01 0.12500000E+03</pdfrwt>
<totfact> 0.80330119E+06</totfact>
</mgrwt>
</event>
<event>
 6      0 +4.1053447e-01 1.25000000e+02 7.54677100e-03 1.12640300e-01
       21 -1    0    0  502  501 +0.0000000000e+00 +0.0000000000e+00 +4.5992021837e+02 4.5992021837e+02 0.0000000000e+00 0.0000e+00 -1.0000e+00
       21 -1    0    0  501  502 -0.0000000000e+00 -0.0000000000e+00 -8.4933208935e+00 8.4933208935e+00 0.0000000000e+00 0.0000e+00 -1.0000e+00
       25  2    1    2    0    0 +0.0000000000e+00 +0.0000000000e+00 +4.5142689747e+02 4.6841353926e+02 1.2500000000e+02 0.0000e+00 0.0000e+00
      -15  1    3    3    0    0 -5.1545415057e+01 -2.2300674934e+01 +1.2316841795e+02 1.3538045216e+02 1.7770000000e+00 0.0000e+00 1.0000e+00
       15  1    3    3    0    0 +5.1545415096e+01 +2.2300674011e+01 +3.2825846975e+02 3.3303307729e+02 1.7770000000e+00 0.0000e+00 1.0000e+00
       22  1    3    3    0    0 -3.8449018065e-08 +9.2344876369e-07 +9.7355065817e-06 9.7792803595e-06 0.0000000000e+00 0.0000e+00 -1.0000e+00
<mgrwt>
<rscale>  2 0.12500000E+03</rscale>
<asrwt>0</asrwt>
<pdfrwt beam="1">  1       21 0.67635310E-01 0.12500000E+03</pdfrwt>
<pdfrwt beam="2">  1       21 0.12490181E-02 0.12500000E+03</pdfrwt>
<totfact> 0.47771359E+06</totfact>
</mgrwt>
</event>
<event>
 6      0 +4.1053447e-01 1.25000000e+02 7.54677100e-03 1.12640300e-01
       21 -1    0    0  502  501 +0.0000000000e+00 +0.0000000000e+00 +2.4700466437e+01 2.4700466437e+01 0.0000000000e+00 0.0000e+00 1.0000e+00
       21 -1    0    0  501  502 -0.0000000000e+00 -0.0000000000e+00 -1.5814478686e+02 1.5814478686e+02 0.0000000000e+00 0.0000e+00 1.0000e+00
       25  2    1    2    0    0 +0.0000000000e+00 +0.0000000000e+00 -1.3344432043e+02 1.8284525330e+02 1.2500000000e+02 0.0000e+00 0.0000e+00
      -15  1    3    3    0    0 -2.6442566705e+01 -5.2868510784e+01 -3.8852333091e+01 7.0759806967e+01 1.7770000000e+00 0.0000e+00 -1.0000e+00
       15  1    3    3    0    0 +1.3773412516e+01 +3.0730549414e+01 -6.3228189132e+01 7.1659159843e+01 1.7770000000e+00 0.0000e+00 -1.0000e+00
       22  1    3    3    0    0 +1.2669154189e+01 +2.2137961370e+01 -3.1363798210e+01 4.0426286493e+01 0.0000000000e+00 0.0000e+00 -1.0000e+00
<mgrwt>
<rscale>  2 0.12500000E+03</rscale>
<asrwt>0</asrwt>
<pdfrwt beam="1">  1       21 0.36324215E-02 0.12500000E+03</pdfrwt>
<pdfrwt beam="2">  1       21 0.23256586E-01 0.12500000E+03</pdfrwt>
<totfact> 0.79372875E+06</totfact>
</mgrwt>
</event>
<event>
 6      0 +4.1053447e-01 1.25000000e+02 7.54677100e-03 1.12640300e-01
       21 -1    0    0  502  501 +0.0000000000e+00 +0.0000000000e+00 +2.7515101738e+02 2.7515101738e+02 0.0000000000e+00 0.0000e+00 -1.0000e+00
       21 -1    0    0  501  502 -0.0000000000e+00 -0.0000000000e+00 -1.4196749251e+01 1.4196749251e+01 0.0000000000e+00 0.0000e+00 -1.0000e+00
       25  2    1    2    0    0 +0.0000000000e+00 +0.0000000000e+00 +2.6095426813e+02 2.8934776663e+02 1.2500000000e+02 0.0000e+00 0.0000e+00
      -15  1    3    3    0    0 +3.0091161585e+01 -2.8056050082e+01 +2.1695764766e+01 4.6545503430e+01 1.7770000000e+00 0.0000e+00 -1.0000e+00
       15  1    3    3    0    0 -2.1649324206e+01 +1.8670666532e+01 +1.5965639904e+02 1.6220545771e+02 1.7770000000e+00 0.0000e+00 -1.0000e+00
       22  1    3    3    0    0 -8.4418373789e+00 +9.3853835501e+00 +7.9602104337e+01 8.0596805505e+01 0.0000000000e+00 0.0000e+00 1.0000e+00
<mgrwt>
<rscale>  2 0.12500000E+03</rscale>
<asrwt>0</asrwt>
<pdfrwt beam="1">  1       21 0.40463381E-01 0.12500000E+03</pdfrwt>
<pdfrwt beam="2">  1       21 0.20877574E-02 0.12500000E+03</pdfrwt>
<totfact> 0.65186187E+06</totfact>
</mgrwt>
</event>
<event>
 6      0 +4.1053447e-01 1.25000000e+02 7.54677100e-03 1.12640300e-01
       21 -1    0    0  502  501 +0.0000000000e+00 +0.0000000000e+00 +6.7091931537e+01 6.7091931537e+01 0.0000000000e+00 0.0000e+00 -1.0000e+00
       21 -1    0    0  501  502 -0.0000000000e+00 -0.0000000000e+00 -5.8222351191e+01 5.8222351191e+01 0.0000000000e+00 0.0000e+00 -1.0000e+00
       25  2    1    2    0    0 +0.0000000000e+00 +0.0000000000e+00 +8.8695803463e+00 1.2531428273e+02 1.2500000000e+02 0.0000e+00 0.0000e+00
      -15  1    3    3    0    0 +5.7637376507e+01 -2.3377459592e+01 -5.0646173477e-01 6.2225292447e+01 1.7770000000e+00 0.0000e+00 -1.0000e+00
       15  1    3    3    0    0 -5.7715413765e+01 +2.3403700476e+01 +9.3742611866e+00 6.3006639998e+01 1.7770000000e+00 0.0000e+00 -1.0000e+00
       22  1    3    3    0    0 +7.8037257982e-02 -2.6240883621e-02 +1.7808943265e-03 8.2350283492e-02 0.0000000000e+00 0.0000e+00 1.0000e+00
<mgrwt>
<rscale>  2 0.12500000E+03</rscale>
<asrwt>0</asrwt>
<pdfrwt beam="1">  1       21 0.98664605E-02 0.12500000E+03</pdfrwt>
<pdfrwt beam="2">  1       21 0.85621105E-02 0.12500000E+03</pdfrwt>
<totfact> 0.88938552E+06</totfact>
</mgrwt>
</event>
<event>
 6      0 +4.1053447e-01 1.25000000e+02 7.54677100e-03 1.12640300e-01
       21 -1    0    0  502  501 +0.0000000000e+00 +0.0000000000e+00 +5.8124160284e+01 5.8124160284e+01 0.0000000000e+00 0.0000e+00 -1.0000e+00
       21 -1    0    0  501  502 -0.0000000000e+00 -0.0000000000e+00 -6.7205271971e+01 6.7205271971e+01 0.0000000000e+00 0.0000e+00 -1.0000e+00
       25  2    1    2    0    0 +0.0000000000e+00 +0.0000000000e+00 -9.0811116869e+00 1.2532943226e+02 1.2500000000e+02 0.0000e+00 0.0000e+00
      -15  1    3    3    0    0 +3.8804807751e+01 +3.6063862310e-01 +2.9385460563e+01 4.8709405522e+01 1.7770000000e+00 0.0000e+00 -1.0000e+00
       15  1    3    3    0    0 +1.0676581075e+01 +1.1055704914e+01 -8.3909323294e+00 1.7600666719e+01 1.7770000000e+00 0.0000e+00 -1.0000e+00
       22  1    3    3    0    0 -4.9481388827e+01 -1.1416343537e+01 -3.0075639920e+01 5.9019360014e+01 0.0000000000e+00 0.0000e+00 -1.0000e+00
<mgrwt>
<rscale>  2 0.12500000E+03</rscale>
<asrwt>0</asrwt>
<pdfrwt beam="1">  1       21 0.85476707E-02 0.12500000E+03</pdfrwt>
<pdfrwt beam="2">  1       21 0.98831282E-02 0.12500000E+03</pdfrwt>
<totfact> 0.88935649E+06</totfact>
</mgrwt>
</event>
<event>
 6      0 +4.1053447e-01 1.25000000e+02 7.54677100e-03 1.12640300e-01
       21 -1    0    0  502  501 +0.0000000000e+00 +0.0000000000e+00 +1.4682094658e+01 1.4682094658e+01 0.0000000000e+00 0.0000e+00 1.0000e+00
       21 -1    0    0  501  502 -0.0000000000e+00 -0.0000000000e+00 -2.6605536137e+02 2.6605536137e+02 0.0000000000e+00 0.0000e+00 1.0000e+00
       25  2    1    2    0    0 +0.0000000000e+00 +0.0000000000e+00 -2.5137326671e+02 2.8073745603e+02 1.2500000000e+02 0.0000e+00 0.0000e+00
      -15  1    3    3    0    0 +2.2438435225e+01 -4.9428380473e+01 -1.9514372437e+02 2.0256080337e+02 1.7770000000e+00 0.0000e+00 -1.0000e+00
       15  1    3    3    0    0 -2.2438539260e+01 +4.9427076043e+01 -5.6228591126e+01 7.8175034885e+01 1.7770000000e+00 0.0000e+00 -1.0000e+00
       22  1    3    3    0    0 +1.0403461050e-04 +1.3044301544e-03 -9.5119641570e-04 1.6177564245e-03 0.0000000000e+00 0.0000e+00 -1.0000e+00
<mgrwt>
<rscale>  2 0.12500000E+03</rscale>
<asrwt>0</asrwt>
<pdfrwt beam="1">  1       21 0.21591316E-02 0.12500000E+03</pdfrwt>
<pdfrwt beam="2">  1       21 0.39125787E-01 0.12500000E+03</pdfrwt>
<totfact> 0.66203470E+06</totfact>
</mgrwt>
</event>
<event>
 6      0 +4.1053447e-01 1.25000000e+02 7.54677100e-03 1.12640300e-01
       21 -1    0    0  502  501 +0.0000000000e+00 +0.0000000000e+00 +1.4619165583e+02 1.4619165583e+02 0.0000000000e+00 0.0000e+00 1.0000e+00
       21 -1    0    0  501  502 -0.0000000000e+00 -0.0000000000e+00 -2.6720061263e+01 2.6720061263e+01 0.0000000000e+00 0.0000e+00 1.0000e+00
       25  2    1    2    0    0 +0.0000000000e+00 +0.0000000000e+00 +1.1947159457e+02 1.7291171710e+02 1.2500000000e+02 0.0000e+00 0.0000e+00
      -15  1    3    3    0    0 -4.4955004805e+01 +4.1939277883e+01 +4.4379568098e+01 7.5845627956e+01 1.7770000000e+00 0.0000e+00 1.0000e+00
       15  1    3    3    0    0 +4.4954983040e+01 -4.1939258130e+01 +7.5091992764e+01 9.7066044418e+01 1.7770000000e+00 0.0000e+00 1.0000e+00
       22  1    3    3    0    0 +2.1765109889e-05 -1.9753205892e-05 +3.3702666548e-05 4.4718887328e-05 0.0000000000e+00 0.0000e+00 1.0000e+00
<mgrwt>
<rscale>  2 0.12500000E+03</rscale>
<asrwt>0</asrwt>
<pdfrwt beam="1">  1       21 0.21498773E-01 0.12500000E+03</pdfrwt>
<pdfrwt beam="2">  1       21 0.39294208E-02 0.12500000E+03</pdfrwt>
<totfact> 0.80904650E+06</totfact>
</mgrwt>
</event>
<event>
 6      0 +4.1053447e-01 1.25000000e+02 7.54677100e-03 1.12640300e-01
       21 -1    0    0  502  501 +0.0000000000e+00 +0.0000000000e+00 +3.6992884158e+01 3.6992884158e+01 0.0000000000e+00 0.0000e+00 -1.0000e+00
       21 -1    0    0  501  502 -0.0000000000e+00 -0.0000000000e+00 -1.0559463229e+02 1.0559463229e+02 0.0000000000e+00 0.0000e+00 -1.0000e+00
       25  2    1    2    0    0 +0.0000000000e+00 +0.0000000000e+00 -6.8601748131e+01 1.4258751645e+02 1.2500000000e+02 0.0000e+00 0.0000e+00
      -15  1    3    3    0    0 -1.4407414520e+01 +6.0790250536e+01 -3.4020622383e+01 7.1158897053e+01 1.7770000000e+00 0.0000e+00 1.0000e+00
       15  1    3    3    0    0 +1.4406466568e+01 -6.0788139027e+01 -3.4579504868e+01 7.1425793739e+01 1.7770000000e+00 0.0000e+00 1.0000e+00
       22  1    3    3    0    0 +9.4795116696e-04 -2.1115086585e-03 -1.6208785131e-03 2.8256552132e-03 0.0000000000e+00 0.0000e+00 1.0000e+00
<mgrwt>
<rscale>  2 0.12500000E+03</rscale>
<asrwt>0</asrwt>
<pdfrwt beam="1">  1       21 0.54401302E-02 0.12500000E+03</pdfrwt>
<pdfrwt beam="2">  1       21 0.15528622E-01 0.12500000E+03</pdfrwt>
<totfact> 0.85891855E+06</totfact>
</mgrwt>
</event>
<event>
 6      0 +4.1053447e-01 1.25000000e+02 7.54677100e-03 1.12640300e-01
       21 -1    0    0  502  501 +0.0000000000e+00 +0.0000000000e+00 +1.1451006989e+01 1.1451006989e+01 0.0000000000e+00 0.0000e+00 1.0000e+00
       21 -1    0    0  501  502 -0.0000000000e+00 -0.0000000000e+00 -3.4112720426e+02 3.4112720426e+02 0.0000000000e+00 0.0000e+00 1.0000e+00
       25  2    1    2    0    0 +0.0000000000e+00 +0.0000000000e+00 -3.2967619727e+02 3.5257821125e+02 1.2500000000e+02 0.0000e+00 0.0000e+00
      -15  1    3    3    0    0 +7.6141544647e+00 -6.1990742474e+01 -1.6907649298e+02 1.8025217254e+02 1.7770000000e+00 0.0000e+00 1.0000e+00
       15  1    3    3    0    0 -7.6140821021e+00 +6.1990777488e+01 -1.6059946769e+02 1.7232578882e+02 1.7770000000e+00 0.0000e+00 1.0000e+00
       22  1    3    3    0    0 -7.2362582571e-05 -3.5013498545e-05 -2.3658320900e-04 2.4986777146e-04 0.0000000000e+00 0.0000e+00 -1.0000e+00
<mgrwt>
<rscale>  2 0.12500000E+03</rscale>
<asrwt>0</asrwt>
<pdfrwt beam="1">  1       21 0.16839716E-02 0.12500000E+03</pdfrwt>
<pdfrwt beam="2">  1       21 0.50165764E-01 0.12500000E+03</pdfrwt>
<totfact> 0.58265524E+06</totfact>
</mgrwt>
</event>
<event>
 6      0 +4.1053447e-01 1.25000000e+02 7.54677100e-03 1.12640300e-01
       21 -1    0    0  502  501 +0.0000000000e+00 +0.0000000000e+00 +1.8852843178e+02 1.8852843178e+02 0.0000000000e+00 0.0000e+00 -1.0000e+00
       21 -1    0    0  501  502 -0.0000000000e+00 -0.0000000000e+00 -2.0719686485e+01 2.0719686485e+01 0.0000000000e+00 0.0000e+00 -1.0000e+00
       25  2    1    2    0    0 +0.0000000000e+00 +0.0000000000e+00 +1.6780874529e+02 2.0924811826e+02 1.2500000000e+02 0.0000e+00 0.0000e+00
      -15  1    3    3    0    0 +8.5049267984e+00 +5.8873753890e+00 +1.8704273134e+02 1.8733695856e+02 1.7770000000e+00 0.0000e+00 1.0000e+00
       15  1    3    3    0    0 -8.5049268005e+00 -5.8873753920e+00 -1.9233986073e+01 2.1911159671e+01 1.7770000000e+00 0.0000e+00 1.0000e+00
       22  1    3    3    0    0 +2.0998923543e-09 +2.9798958654e-09 +2.7672028006e-08 2.7911117162e-08 0.0000000000e+00 0.0000e+00 1.0000e+00
<mgrwt>
<rscale>  2 0.12500000E+03</rscale>
<asrwt>0</asrwt>
<pdfrwt beam="1">  1       21 0.27724768E-01 0.12500000E+03</pdfrwt>
<pdfrwt beam="2">  1       21 0.30470128E-02 0.12500000E+03</pdfrwt>
<totfact> 0.75490564E+06</totfact>
</mgrwt>
</event>
<event>
 6      0 +4.1053447e-01 1.25000000e+02 7.54677100e-03 1.12640300e-01
       21 -1    0    0  502  501 +0.0000000000e+00 +0.0000000000e+00 +1.0006160921e+01 1.0006160921e+01 0.0000000000e+00 0.0000e+00 1.0000e+00
       21 -1    0    0  501  502 -0.0000000000e+00 -0.0000000000e+00 -3.9038448719e+02 3.9038448719e+02 0.0000000000e+00 0.0000e+00 1.0000e+00
       25  2    1    2    0    0 +0.0000000000e+00 +0.0000000000e+00 -3.8037832627e+02 4.0039064811e+02 1.2500000000e+02 0.0000e+00 0.0000e+00
      -15  1    3    3    0    0 +1.4061598724e+01 +5.0150056771e+01 -1.0838168128e+02 1.2026014851e+02 1.7770000000e+00 0.0000e+00 1.0000e+00
       15  1    3    3    0    0 -1.6714573228e+01 -5.6324897861e+01 -2.5790245974e+02 2.6451598731e+02 1.7770000000e+00 0.0000e+00 1.0000e+00
       22  1    3    3    0    0 +2.6529745037e+00 +6.1748410894e+00 -1.4094185275e+01 1.5614512313e+01 0.0000000000e+00 0.0000e+00 -1.0000e+00
<mgrwt>
<rscale>  2 0.12500000E+03</rscale>
<asrwt>0</asrwt>
<pdfrwt beam="1">  1       21 0.14714945E-02 0.12500000E+03</pdfrwt>
<pdfrwt beam="2">  1       21 0.57409474E-01 0.12500000E+03</pdfrwt>
<totfact> 0.53619851E+06</totfact>
</mgrwt>
</event>
<event>
 6      0 +4.1053447e-01 1.25000000e+02 7.54677100e-03 1.12640300e-01
       21 -1    0    0  502  501 +0.0000000000e+00 +0.0000000000e+00 +2.7554026052e+02 2.7554026052e+02 0.0000000000e+00 0.0000e+00 -1.0000e+00
       21 -1    0    0  501  502 -0.0000000000e+00 -0.0000000000e+00 -1.4176694152e+01 1.4176694152e+01 0.0000000000e+00 0.0000e+00 -1.0000e+00
       25  2    1    2    0    0 +0.0000000000e+00 +0.0000000000e+00 +2.6136356637e+02 2.8971695467e+02 1.2500000000e+02 0.0000e+00 0.0000e+00
      -15  1    3    3    0    0 -4.8012161491e+01 -5.4446599715e+00 +3.8896022120e+01 6.2055380420e+01 1.7770000000e+00 0.0000e+00 1.0000e+00
       15  1    3    3    0    0 +4.8012203622e+01 +5.4446631511e+00 +2.2246751492e+02 2.2766152282e+02 1.7770000000e+00 0.0000e+00 1.0000e+00
       22  1    3    3    0    0 -4.2130513255e-05 -3.1795826244e-06 +2.9353906887e-05 5.1446493975e-05 0.0000000000e+00 0.0000e+00 1.0000e+00
<mgrwt>
<rscale>  2 0.12500000E+03</rscale>
<asrwt>0</asrwt>
<pdfrwt beam="1">  1       21 0.40520623E-01 0.12500000E+03</pdfrwt>
<pdfrwt beam="2">  1       21 0.20848081E-02 0.12500000E+03</pdfrwt>
<totfact> 0.65142941E+06</totfact>
</mgrwt>
</event>
<event>
 6      0 +4.1053447e-01 1.25000000e+02 7.54677100e-03 1.12640300e-01
       21 -1    0    0  502  501 +0.0000000000e+00 +0.0000000000e+00 +3.2867200813e+01 3.2867200813e+01 0.0000000000e+00 0.0000e+00 -1.0000e+00
       21 -1    0    0  501  502 -0.0000000000e+00 -0.0000000000e+00 -1.1884948835e+02 1.1884948835e+02 0.0000000000e+00 0.0000e+00 -1.0000e+00
       25  2    1    2    0    0 +0.0000000000e+00 +0.0000000000e+00 -8.5982287535e+01 1.5171668916e+02 1.2500000000e+02 0.0000e+00 0.0000e+00
      -15  1    3    3    0    0 +4.6928447976e+01 -8.6856856887e+00 -8.7050757433e+01 9.9291049264e+01 1.7770000000e+00 0.0000e+00 1.0000e+00
       15  1    3    3    0    0 -4.7628571876e+01 +1.0059181756e+01 +4.2434786821e+00 4.8896143374e+01 1.7770000000e+00 0.0000e+00 1.0000e+00
       22  1    3    3    0    0 +7.0012389990e-01 -1.3734960671e+00 -3.1750087843e+00 3.5294965225e+00 0.0000000000e+00 0.0000e+00 1.0000e+00
<mgrwt>
<rscale>  2 0.12500000E+03</rscale>
<asrwt>0</asrwt>
<pdfrwt beam="1">  1       21 0.48334120E-02 0.12500000E+03</pdfrwt>
<pdfrwt beam="2">  1       21 0.17477866E-01 0.12500000E+03</pdfrwt>
<totfact> 0.84338572E+06</totfact>
</mgrwt>
</event>
<event>
 6      0 +4.1053447e-01 1.25000000e+02 7.54677100e-03 1.12640300e-01
       21 -1    0    0  502  501 +0.0000000000e+00 +0.0000000000e+00 +1.3626825401e+03 1.3626825401e+03 0.0000000000e+00 0.0000e+00 -1.0000e+00
       21 -1    0    0  501  502 -0.0000000000e+00 -0.0000000000e+00 -2.8665884276e+00 2.8665884276e+00 0.0000000000e+00 0.0000e+00 -1.0000e+00
       25  2    1    2    0    0 +0.0000000000e+00 +0.0000000000e+00 +1.3598159517e+03 1.3655491286e+03 1.2500000000e+02 0.0000e+00 0.0000e+00
      -15  1    3    3    0    0 -5.1041287238e+01 +3.5313895894e+01 +7.5775881016e+02 7.6029853107e+02 1.7770000000e+00 0.0000e+00 -1.0000e+00
       15  1    3    3    0    0 +5.1028803245e+01 -3.5308537080e+01 +6.0193758561e+02 6.0513027214e+02 1.7770000000e+00 0.0000e+00 -1.0000e+00
       22  1    3    3    0    0 +1.2483992523e-02 -5.3588142626e-03 +1.1955059221e-01 1.2032003597e-01 0.0000000000e+00 0.0000e+00 -1.0000e+00
<mgrwt>
<rscale>  2 0.12500000E+03</rscale>
<asrwt>0</asrwt>
<pdfrwt beam="1">  1       21 0.20039404E+00 0.12500000E+03</pdfrwt>
<pdfrwt beam="2">  1       21 0.42155807E-03 0.12500000E+03</pdfrwt>
<totfact> 0.12760765E+06</totfact>
</mgrwt>
</event>
<event>
 6      0 +4.1053447e-01 1.25000000e+02 7.54677100e-03 1.12640300e-01
       21 -1    0    0  502  501 +0.0000000000e+00 +0.0000000000e+00 +7.8175923861e+01 7.8175923861e+01 0.0000000000e+00 0.0000e+00 -1.0000e+00
       21 -1    0    0  501  502 -0.0000000000e+00 -0.0000000000e+00 -4.9967429959e+01 4.9967429959e+01 0.0000000000e+00 0.0000e+00 -1.0000e+00
       25  2    1    2    0    0 +0.0000000000e+00 +0.0000000000e+00 +2.8208493901e+01 1.2814335382e+02 1.2500000000e+02 0.0000e+00 0.0000e+00
      -15  1    3    3    0    0 +4.9554882332e+01 -2.6858801879e+01 -1.3517889466e+01 5.7991142996e+01 1.7770000000e+00 0.0000e+00 -1.0000e+00
       15  1    3    3    0    0 -4.9554887980e+01 +2.6858807892e+01 +4.1726385733e+01 7.0152202242e+01 1.7770000000e+00 0.0000e+00 -1.0000e+00
       22  1    3    3    0    0 +5.6480666918e-06 -6.0129730499e-06 -2.3655844297e-06 8.5821030026e-06 0.0000000000e+00 0.0000e+00 1.0000e+00
<mgrwt>
<rscale>  2 0.12500000E+03</rscale>
<asrwt>0</asrwt>
<pdfrwt beam="1">  1       21 0.11496459E-01 0.12500000E+03</pdfrwt>
<pdfrwt beam="2">  1       21 0.73481515E-02 0.12500000E+03</pdfrwt>
<totfact> 0.88432349E+06</totfact>
</mgrwt>
</event>
<event>
 6      0 +4.1053447e-01 1.25000000e+02 7.54677100e-03 1.12640300e-01
       21 -1    0    0  502  501 +0.0000000000e+00 +0.0000000000e+00 +3.1792056672e+00 3.1792056672e+00 0.0000000000e+00 0.0000e+00 -1.0000e+00
       21 -1    0    0  501  502 -0.0000000000e+00 -0.0000000000e+00 -1.2286874172e+03 1.2286874172e+03 0.0000000000e+00 0.0000e+00 -1.0000e+00
       25  2    1    2    0    0 +0.0000000000e+00 +0.0000000000e+00 -1.2255082115e+03 1.2318666229e+03 1.2500000000e+02 0.0000e+00 0.0000e+00
      -15  1    3    3    0    0 +3.7056648797e+01 +2.3361369935e+01 -1.0515796931e+03 1.0524932102e+03 1.7770000000e+00 0.0000e+00 1.0000e+00
       15  1    3    3    0    0 -3.7053104647e+01 -2.3360426941e+01 -1.7392990467e+02 1.7936948341e+02 1.7770000000e+00 0.0000e+00 1.0000e+00
       22  1    3    3    0    0 -3.5441508164e-03 -9.4299409514e-04 +1.3925883290e-03 3.9229510754e-03 0.0000000000e+00 0.0000e+00 1.0000e+00
<mgrwt>
<rscale>  2 0.12500000E+03</rscale>
<asrwt>0</asrwt>
<pdfrwt beam="1">  1       21 0.46752963E-03 0.12500000E+03</pdfrwt>
<pdfrwt beam="2">  1       21 0.18068956E+00 0.12500000E+03</pdfrwt>
<totfact> 0.15336497E+06</totfact>
</mgrwt>
</event>
<event>
 6      0 +4.1053447e-01 1.25000000e+02 7.54677100e-03 1.12640300e-01
       21 -1    0    0  502  501 +0.0000000000e+00 +0.0000000000e+00 +5.5686242549e+01 5.5686242549e+01 0.0000000000e+00 0.0000e+00 -1.0000e+00
       21 -1    0    0  501  502 -0.0000000000e+00 -0.0000000000e+00 -7.0147487444e+01 7.0147487444e+01 0.0000000000e+00 0.0000e+00 -1.0000e+00
       25  2    1    2    0    0 +0.0000000000e+00 +0.0000000000e+00 -1.4461244895e+01 1.2583372999e+02 1.2500000000e+02 0.0000e+00 0.0000e+00
      -15  1    3    3    0    0 -4.3926931076e+00 -6.2160021766e+01 -7.0848749753e+00 6.2741670691e+01 1.7770000000e+00 0.0000e+00 -1.0000e+00
       15  1    3    3    0    0 +4.3710006503e+00 +6.2301757993e+01 -7.2472177027e+00 6.2899082578e+01 1.7770000000e+00 0.0000e+00 -1.0000e+00
       22  1    3    3    0    0 +2.1692457241e-02 -1.4173622659e-01 -1.2915221730e-01 1.9297672363e-01 0.0000000000e+00 0.0000e+00 1.0000e+00
<mgrwt>
<rscale>  2 0.12500000E+03</rscale>
<asrwt>0</asrwt>
<pdfrwt beam="1">  1       21 0.81891533E-02 0.12500000E+03</pdfrwt>
<pdfrwt beam="2">  1       21 0.10315807E-01 0.12500000E+03</pdfrwt>
<totfact> 0.88841946E+06</totfact>
</mgrwt>
</event>
<event>
 6      0 +4.1053447e-01 1.25000000e+02 7.54677100e-03 1.12640300e-01
       21 -1    0    0  502  501 +0.0000000000e+00 +0.0000000000e+00 +8.0602888282e+01 8.0602888282e+01 0.0000000000e+00 0.0000e+00 1.0000e+00
       21 -1    0    0  501  502 -0.0000000000e+00 -0.0000000000e+00 -4.8462903542e+01 4.8462903542e+01 0.0000000000e+00 0.0000e+00 1.0000e+00
       25  2    1    2    0    0 +0.0000000000e+00 +0.0000000000e+00 +3.2139984741e+01 1.2906579182e+02 1.2500000000e+02 0.0000e+00 0.0000e+00
      -15  1    3    3    0    0 -6.2285383206e+01 -1.2382297571e+00 +1.1217107959e+01 6.3324429835e+01 1.7770000000e+00 0.0000e+00 1.0000e+00
       15  1    3    3    0    0 +6.2285378333e+01 +1.2382296489e+00 +2.0922875121e+01 6.5741356840e+01 1.7770000000e+00 0.0000e+00 1.0000e+00
       22  1    3    3    0    0 +4.8723588913e-06 +1.0816626026e-07 +1.6630939918e-06 5.1495109215e-06 0.0000000000e+00 0.0000e+00 -1.0000e+00
<mgrwt>
<rscale>  2 0.12500000E+03</rscale>
<asrwt>0</asrwt>
<pdfrwt beam="1">  1       21 0.11853366E-01 0.12500000E+03</pdfrwt>
<pdfrwt beam="2">  1       21 0.71268976E-02 0.12500000E+03</pdfrwt>
<totfact> 0.88267472E+06</totfact>
</mgrwt>
</event>
<event>
 6      0 +4.1053447e-01 1.25000000e+02 7.54677100e-03 1.12640300e-01
       21 -1    0    0  502  501 +0.0000000000e+00 +0.0000000000e+00 +3.9159367136e+01 3.9159367136e+01 0.0000000000e+00 0.0000e+00 1.0000e+00
       21 -1    0    0  501  502 -0.0000000000e+00 -0.0000000000e+00 -9.9752633551e+01 9.9752633551e+01 0.0000000000e+00 0.0000e+00 1.0000e+00
       25  2    1    2    0    0 +0.0000000000e+00 +0.0000000000e+00 -6.0593266415e+01 1.3891200069e+02 1.2500000000e+02 0.0000e+00 0.0000e+00
      -15  1    3    3    0    0 -5.7207781682e+01 -8.1269694242e+00 -3.8976255191e+00 5.7940720834e+01 1.7770000000e+00 0.0000e+00 -1.0000e+00
       15  1    3    3    0    0 +5.7207841826e+01 +8.1269749855e+00 -5.6695641466e+01 8.0971219449e+01 1.7770000000e+00 0.0000e+00 -1.0000e+00
       22  1    3    3    0    0 -6.0144350448e-05 -5.5613267206e-06 +5.7141695688e-07 6.0403623757e-05 0.0000000000e+00 0.0000e+00 1.0000e+00
<mgrwt>
<rscale>  2 0.12500000E+03</rscale>
<asrwt>0</asrwt>
<pdfrwt beam="1">  1       21 0.57587305E-02 0.12500000E+03</pdfrwt>
<pdfrwt beam="2">  1       21 0.14669505E-01 0.12500000E+03</pdfrwt>
<totfact> 0.86528189E+06</totfact>
</mgrwt>
</event>
<event>
 6      0 +4.1053447e-01 1.25000000e+02 7.54677100e-03 1.12640300e-01
       21 -1    0    0  502  501 +0.0000000000e+00 +0.0000000000e+00 +9.1574120270e+01 9.1574120270e+01 0.0000000000e+00 0.0000e+00 1.0000e+00
       21 -1    0    0  501  502 -0.0000000000e+00 -0.0000000000e+00 -4.2656702445e+01 4.2656702445e+01 0.0000000000e+00 0.0000e+00 1.0000e+00
       25  2    1    2    0    0 +0.0000000000e+00 +0.0000000000e+00 +4.8917417825e+01 1.3423082271e+02 1.2500000000e+02 0.0000e+00 0.0000e+00
      -15  1    3    3    0    0 -2.2110815599e+01 +1.8577781882e+01 -3.5030945091e+01 4.5435085442e+01 1.7770000000e+00 0.0000e+00 -1.0000e+00
       15  1    3    3    0    0 +2.2111109572e+01 -1.8577911814e+01 +8.3948760738e+01 8.8795225842e+01 1.7770000000e+00 0.0000e+00 -1.0000e+00
       22  1    3    3    0    0 -2.9397297304e-04 +1.2993167036e-04 -3.9781980458e-04 5.1143224846e-04 0.0000000000e+00 0.0000e+00 1.0000e+00
<mgrwt>
<rscale>  2 0.12500000E+03</rscale>
<asrwt>0</asrwt>
<pdfrwt beam="1">  1       21 0.13466782E-01 0.12500000E+03</pdfrwt>
<pdfrwt beam="2">  1       21 0.62730445E-02 0.12500000E+03</pdfrwt>
<totfact> 0.87340754E+06</totfact>
</mgrwt>
</event>
<event>
 6      0 +4.1053447e-01 1.25000000e+02 7.54677100e-03 1.12640300e-01
       21 -1    0    0  502  501 +0.0000000000e+00 +0.0000000000e+00 +4.8476875514e+01 4.8476875514e+01 0.0000000000e+00 0.0000e+00 -1.0000e+00
       21 -1    0    0  501  502 -0.0000000000e+00 -0.0000000000e+00 -8.0579656972e+01 8.0579656972e+01 0.0000000000e+00 0.0000e+00 -1.0000e+00
       25  2    1    2    0    0 +0.0000000000e+00 +0.0000000000e+00 -3.2102781457e+01 1.2905653249e+02 1.2500000000e+02 0.0000e+00 0.0000e+00
      -15  1    3    3    0    0 -4.0535984973e+01 -5.1476859110e+00 -6.4844197550e+01 7.6665457886e+01 1.7770000000e+00 0.0000e+00 -1.0000e+00
       15  1    3    3    0    0 +4.0535989770e+01 +5.1476865732e+00 +3.2741424051e+01 5.2391065285e+01 1.7770000000e+00 0.0000e+00 -1.0000e+00
       22  1    3    3    0    0 -4.7974388534e-06 -6.6219866467e-07 -7.9574971261e-06 9.3153468607e-06 0.0000000000e+00 0.0000e+00 1.0000e+00
<mgrwt>
<rscale>  2 0.12500000E+03</rscale>
<asrwt>0</asrwt>
<pdfrwt beam="1">  1       21 0.71289523E-02 0.12500000E+03</pdfrwt>
<pdfrwt beam="2">  1       21 0.11849949E-01 0.12500000E+03</pdfrwt>
<totfact> 0.88269141E+06</totfact>
</mgrwt>
</event>
<event>
 6      0 +4.1053447e-01 1.25000000e+02 7.54677100e-03 1.12640300e-01
       21 -1    0    0  502  501 +0.0000000000e+00 +0.0000000000e+00 +2.6105392086e+01 2.6105392086e+01 0.0000000000e+00 0.0000e+00 -1.0000e+00
       21 -1    0    0  501  502 -0.0000000000e+00 -0.0000000000e+00 -1.4963383760e+02 1.4963383760e+02 0.0000000000e+00 0.0000e+00 -1.0000e+00
       25  2    1    2    0    0 +0.0000000000e+00 +0.0000000000e+00 -1.2352844552e+02 1.7573922969e+02 1.2500000000e+02 0.0000e+00 0.0000e+00
      -15  1    3    3    0    0 +1.4870337887e+00 -6.7572082353e+00 -1.4905801303e+02 1.4922908600e+02 1.7770000000e+00 0.0000e+00 -1.0000e+00
       15  1    3    3    0    0 -1.4870264686e+00 +6.7571855183e+00 +2.5529511667e+01 2.6510082965e+01 1.7770000000e+00 0.0000e+00 -1.0000e+00
       22  1    3    3    0    0 -7.3200624239e-06 +2.2716985507e-05 +5.5838280155e-05 6.0725268836e-05 0.0000000000e+00 0.0000e+00 -1.0000e+00
<mgrwt>
<rscale>  2 0.12500000E+03</rscale>
<asrwt>0</asrwt>
<pdfrwt beam="1">  1       21 0.38390284E-02 0.12500000E+03</pdfrwt>
<pdfrwt beam="2">  1       21 0.22004975E-01 0.12500000E+03</pdfrwt>
<totfact> 0.80463236E+06</totfact>
</mgrwt>
</event>
<event>
 6      0 +4.1053447e-01 1.25000000e+02 7.54677100e-03 1.12640300e-01
       21 -1    0    0  502  501 +0.0000000000e+00 +0.0000000000e+00 +2.9023524566e+02 2.9023524566e+02 0.0000000000e+00 0.0000e+00 -1.0000e+00
       21 -1    0    0  501  502 -0.0000000000e+00 -0.0000000000e+00 -1.3458909827e+01 1.3458909827e+01 0.0000000000e+00 0.0000e+00 -1.0000e+00
       25  2    1    2    0    0 +0.0000000000e+00 +0.0000000000e+00 +2.7677633584e+02 3.0369415549e+02 1.2500000000e+02 0.0000e+00 0.0000e+00
      -15  1    3    3    0    0 +6.6499087474e+00 -6.0630836619e+01 +1.3979589922e+02 1.5253317935e+02 1.7770000000e+00 0.0000e+00 1.0000e+00
       15  1    3    3    0    0 -9.3170950761e+00 +5.7311082911e+01 +1.3373542112e+02 1.4580702684e+02 1.7770000000e+00 0.0000e+00 1.0000e+00
       22  1    3    3    0    0 +2.6671863286e+00 +3.3197537077e+00 +3.2450155219e+00 5.3539493207e+00 0.0000000000e+00 0.0000e+00 -1.0000e+00
<mgrwt>
<rscale>  2 0.12500000E+03</rscale>
<asrwt>0</asrwt>
<pdfrwt beam="1">  1       21 0.42681650E-01 0.12500000E+03</pdfrwt>
<pdfrwt beam="2">  1       21 0.19792516E-02 0.12500000E+03</pdfrwt>
<totfact> 0.63527510E+06</totfact>
</mgrwt>
</event>
<event>
 6      0 +4.1053447e-01 1.25000000e+02 7.54677100e-03 1.12640300e-01
       21 -1    0    0  502  501 +0.0000000000e+00 +0.0000000000e+00 +1.1968668279e+02 1.1968668279e+02 0.0000000000e+00 0.0000e+00 1.0000e+00
       21 -1    0    0  501  502 -0.0000000000e+00 -0.0000000000e+00 -3.2637298561e+01 3.2637298561e+01 0.0000000000e+00 0.0000e+00 1.0000e+00
       25  2    1    2    0    0 +0.0000000000e+00 +0.0000000000e+00 +8.7049384229e+01 1.5232398135e+02 1.2500000000e+02 0.0000e+00 0.0000e+00
      -15  1    3    3    0    0 +2.6627009816e+01 -5.2297815792e+01 +6.9633092373e+01 9.1082295045e+01 1.7770000000e+00 0.0000e+00 1.0000e+00
       15  1    3    3    0    0 -2.6627009754e+01 +5.2297815772e+01 +1.7416291840e+01 6.1241686239e+01 1.7770000000e+00 0.0000e+00 1.0000e+00
       22  1    3    3    0    0 -6.2293591530e-08 +1.9202526869e-08 +1.7346271403e-08 6.7454590026e-08 0.0000000000e+00 0.0000e+00 -1.0000e+00
<mgrwt>
<rscale>  2 0.12500000E+03</rscale>
<asrwt>0</asrwt>
<pdfrwt beam="1">  1       21 0.17600983E-01 0.12500000E+03</pdfrwt>
<pdfrwt beam="2">  1       21 0.47996027E-02 0.12500000E+03</pdfrwt>
<totfact> 0.84237586E+06</totfact>
</mgrwt>
</event>
<event>
 6      0 +4.1053447e-01 1.25000000e+02 7.54677100e-03 1.12640300e-01
       21 -1    0    0  502  501 +0.0000000000e+00 +0.0000000000e+00 +3.8111393858e+01 3.8111393858e+01 0.0000000000e+00 0.0000e+00 -1.0000e+00
       21 -1    0    0  501  502 -0.0000000000e+00 -0.0000000000e+00 -1.0249559527e+02 1.0249559527e+02 0.0000000000e+00 0.0000e+00 -1.0000e+00
       25  2    1    2    0    0 +0.0000000000e+00 +0.0000000000e+00 -6.4384201411e+01 1.4060698913e+02 1.2500000000e+02 0.0000e+00 0.0000e+00
      -15  1    3    3    0    0 -4.5555967511e+01 +1.7419617494e+01 -7.6108623480e+01 9.0412773138e+01 1.7770000000e+00 0.0000e+00 1.0000e+00
       15  1    3    3    0    0 +4.5556188588e+01 -1.7419534720e+01 +1.1724589852e+01 5.0193926373e+01 1.7770000000e+00 0.0000e+00 1.0000e+00
       22  1    3    3    0    0 -2.2107672790e-04 -8.2773917785e-05 -1.6778075564e-04 2.8961495653e-04 0.0000000000e+00 0.0000e+00 1.0000e+00
<mgrwt>
<rscale>  2 0.12500000E+03</rscale>
<asrwt>0</asrwt>
<pdfrwt beam="1">  1       21 0.56046169E-02 0.12500000E+03</pdfrwt>
<pdfrwt beam="2">  1       21 0.15072881E-01 0.12500000E+03</pdfrwt>
<totfact> 0.86235301E+06</totfact>
</mgrwt>
</event>
<event>
 6      0 +4.1053447e-01 1.25000000e+02 7.54677100e-03 1.12640300e-01
       21 -1    0    0  502  501 +0.0000000000e+00 +0.0000000000e+00 +2.5087358376e+01 2.5087358376e+01 0.0000000000e+00 0.0000e+00 1.0000e+00
       21 -1    0    0  501  502 -0.0000000000e+00 -0.0000000000e+00 -1.5570591138e+02 1.5570591138e+02 0.0000000000e+00 0.0000e+00 1.0000e+00
       25  2    1    2    0    0 +0.0000000000e+00 +0.0000000000e+00 -1.3061855300e+02 1.8079326975e+02 1.2500000000e+02 0.0000e+00 0.0000e+00
      -15  1    3    3    0    0 +4.8692134386e+01 -3.3065429865e+01 -3.5011388046e+01 6.8506945817e+01 1.7770000000e+00 0.0000e+00 1.0000e+00
       15  1    3    3    0    0 -4.8691659616e+01 +3.3066033602e+01 -9.5605857054e+01 1.1228480719e+02 1.7770000000e+00 0.0000e+00 1.0000e+00
       22  1    3    3    0    0 -4.7476982420e-04 -6.0373648347e-04 -1.3079050590e-03 1.5167464425e-03 0.0000000000e+00 0.0000e+00 1.0000e+00
<mgrwt>
<rscale>  2 0.12500000E+03</rscale>
<asrwt>0</asrwt>
<pdfrwt beam="1">  1       21 0.36893174E-02 0.12500000E+03</pdfrwt>
<pdfrwt beam="2">  1       21 0.22897928E-01 0.12500000E+03</pdfrwt>
<totfact> 0.79685126E+06</totfact>
</mgrwt>
</event>
<event>
 6      0 +4.1053447e-01 1.25000000e+02 7.54677100e-03 1.12640300e-01
       21 -1    0    0  502  501 +0.0000000000e+00 +0.0000000000e+00 +1.9588653942e+00 1.9588653942e+00 0.0000000000e+00 0.0000e+00 1.0000e+00
       21 -1    0    0  501  502 -0.0000000000e+00 -0.0000000000e+00 -1.9941390621e+03 1.9941390621e+03 0.0000000000e+00 0.0000e+00 1.0000e+00
       25  2    1    2    0    0 +0.0000000000e+00 +0.0000000000e+00 -1.9921801967e+03 1.9960979275e+03 1.2500000000e+02 0.0000e+00 0.0000e+00
      -15  1    3    3    0    0 -6.0618747454e+01 -1.3455283665e+01 -8.8617400244e+02 8.8834857884e+02 1.7770000000e+00 0.0000e+00 1.0000e+00
       15  1    3    3    0    0 +6.0619054668e+01 +1.3454982691e+01 -1.1059978829e+03 1.1077410262e+03 1.7770000000e+00 0.0000e+00 1.0000e+00
       22  1    3    3    0    0 -3.0721347240e-04 +3.0097391455e-04 -8.3083964257e-03 8.3195202134e-03 0.0000000000e+00 0.0000e+00 -1.0000e+00
<mgrwt>
<rscale>  2 0.12500000E+03</rscale>
<asrwt>0</asrwt>
<pdfrwt beam="1">  1       21 0.28806808E-03 0.12500000E+03</pdfrwt>
<pdfrwt beam="2">  1       21 0.29325611E+00 0.12500000E+03</pdfrwt>
<totfact> 0.54224017E+05</totfact>
</mgrwt>
</event>
<event>
 6      0 +4.1053447e-01 1.25000000e+02 7.54677100e-03 1.12640300e-01
       21 -1    0    0  502  501 +0.0000000000e+00 +0.0000000000e+00 +3.7745593100e+01 3.7745593100e+01 0.0000000000e+00 0.0000e+00 -1.0000e+00
       21 -1    0    0  501  502 -0.0000000000e+00 -0.0000000000e+00 -1.0348890239e+02 1.0348890239e+02 0.0000000000e+00 0.0000e+00 -1.0000e+00
       25  2    1    2    0    0 +0.0000000000e+00 +0.0000000000e+00 -6.5743309289e+01 1.4123449549e+02 1.2500000000e+02 0.0000e+00 0.0000e+00
      -15  1    3    3    0    0 -2.4435376469e+01 +5.6417492082e+01 -2.0337096028e+01 6.4782530360e+01 1.7770000000e+00 0.0000e+00 -1.0000e+00
       15  1    3    3    0    0 +2.4435376511e+01 -5.6417492034e+01 -4.5406213219e+01 7.6451965054e+01 1.7770000000e+00 0.0000e+00 -1.0000e+00
       22  1    3    3    0    0 -4.2430769254e-08 -4.8039107468e-08 -4.2697341757e-08 7.7014213096e-08 0.0000000000e+00 0.0000e+00 1.0000e+00
<mgrwt>
<rscale>  2 0.12500000E+03</rscale>
<asrwt>0</asrwt>
<pdfrwt beam="1">  1       21 0.55508226E-02 0.12500000E+03</pdfrwt>
<pdfrwt beam="2">  1       21 0.15218956E-01 0.12500000E+03</pdfrwt>
<totfact> 0.86126612E+06</totfact>
</mgrwt>
</event>
<event>
 6      0 +4.1053447e-01 1.25000000e+02 7.54677100e-03 1.12640300e-01
       21 -1    0    0  502  501 +0.0000000000e+00 +0.0000000000e+00 +2.2796966954e+01 2.2796966954e+01 0.0000000000e+00 0.0000e+00 1.0000e+00
       21 -1    0    0  501  502 -0.0000000000e+00 -0.0000000000e+00 -1.7134954873e+02 1.7134954873e+02 0.0000000000e+00 0.0000e+00 1.0000e+00
       25  2    1    2    0    0 +0.0000000000e+00 +0.0000000000e+00 -1.4855258177e+02 1.9414651568e+02 1.2500000000e+02 0.0000e+00 0.0000e+00
      -15  1    3    3    0    0 +1.9984058228e+00 -1.0395896331e+01 -1.6984426718e+02 1.7018313991e+02 1.7770000000e+00 0.0000e+00 1.0000e+00
       15  1    3    3    0    0 -1.9988204500e+00 +1.0398698302e+01 +2.1353761171e+01 2.3901235421e+01 1.7770000000e+00 0.0000e+00 1.0000e+00
       22  1    3    3    0    0 +4.1462727795e-04 -2.8019708059e-03 -6.2075761231e-02 6.2140349923e-02 0.0000000000e+00 0.0000e+00 -1.0000e+00
<mgrwt>
<rscale>  2 0.12500000E+03</rscale>
<asrwt>0</asrwt>
<pdfrwt beam="1">  1       21 0.33524951E-02 0.12500000E+03</pdfrwt>
<pdfrwt beam="2">  1       21 0.25198463E-01 0.12500000E+03</pdfrwt>
<totfact> 0.77680993E+06</totfact>
</mgrwt>
</event>
<event>
 6      0 +4.1053447e-01 1.25000000e+02 7.54677100e-03 1.12640300e-01
       21 -1    0    0  502  501 +0.0000000000e+00 +0.0000000000e+00 +1.9159257946e+02 1.9159257946e+02 0.0000000000e+00 0.0000e+00 -1.0000e+00
       21 -1    0    0  501  502 -0.0000000000e+00 -0.0000000000e+00 -2.0388315722e+01 2.0388315722e+01 0.0000000000e+00 0.0000e+00 -1.0000e+00
       25  2    1    2    0    0 +0.0000000000e+00 +0.0000000000e+00 +1.7120426374e+02 2.1198089518e+02 1.2500000000e+02 0.0000e+00 0.0000e+00
      -15  1    3    3    0    0 -4.0344948845e+01 -1.7341429037e+01 +1.6096058835e+02 1.6685295559e+02 1.7770000000e+00 0.0000e+00 1.0000e+00
       15  1    3    3    0    0 +4.0344949597e+01 +1.7341429234e+01 +1.0243672794e+01 4.5127936882e+01 1.7770000000e+00 0.0000e+00 1.0000e+00
       22  1    3    3    0    0 -7.5210975814e-07 -1.9709719183e-07 +2.6075896142e-06 2.7210365649e-06 0.0000000000e+00 0.0000e+00 -1.0000e+00
<mgrwt>
<rscale>  2 0.12500000E+03</rscale>
<asrwt>0</asrwt>
<pdfrwt beam="1">  1       21 0.28175378E-01 0.12500000E+03</pdfrwt>
<pdfrwt beam="2">  1       21 0.29982818E-02 0.12500000E+03</pdfrwt>
<totfact> 0.75105564E+06</totfact>
</mgrwt>
</event>
<event>
 6      0 +4.1053447e-01 1.25000000e+02 7.54677100e-03 1.12640300e-01
       21 -1    0    0  502  501 +0.0000000000e+00 +0.0000000000e+00 +1.2342003961e+02 1.2342003961e+02 0.0000000000e+00 0.0000e+00 1.0000e+00
       21 -1    0    0  501  502 -0.0000000000e+00 -0.0000000000e+00 -3.1650046559e+01 3.1650046559e+01 0.0000000000e+00 0.0000e+00 1.0000e+00
       25  2    1    2    0    0 +0.0000000000e+00 +0.0000000000e+00 +9.1769993053e+01 1.5507008617e+02 1.2500000000e+02 0.0000e+00 0.0000e+00
      -15  1    3    3    0    0 +8.1993570472e+00 +3.9856230351e+01 -1.2925165531e+01 4.2731325591e+01 1.7770000000e+00 0.0000e+00 -1.0000e+00
       15  1    3    3    0    0 -8.1993862113e+00 -3.9856281558e+01 +1.0469514044e+02 1.1233869892e+02 1.7770000000e+00 0.0000e+00 -1.0000e+00
       22  1    3    3    0    0 +2.9164119327e-05 +5.1207424208e-05 +1.8143459638e-05 6.1659802771e-05 0.0000000000e+00 0.0000e+00 1.0000e+00
<mgrwt>
<rscale>  2 0.12500000E+03</rscale>
<asrwt>0</asrwt>
<pdfrwt beam="1">  1       21 0.18150006E-01 0.12500000E+03</pdfrwt>
<pdfrwt beam="2">  1       21 0.46544187E-02 0.12500000E+03</pdfrwt>
<totfact> 0.83783906E+06</totfact>
</mgrwt>
</event>
<event>
 6      0 +4.1053447e-01 1.25000000e+02 7.54677100e-03 1.12640300e-01
       21 -1    0    0  502  501 +0.0000000000e+00 +0.0000000000e+00 +6.2710072265e+00 6.2710072265e+00 0.0000000000e+00 0.0000e+00 -1.0000e+00
       21 -1    0    0  501  502 -0.0000000000e+00 -0.0000000000e+00 -6.2290631455e+02 6.2290631455e+02 0.0000000000e+00 0.0000e+00 -1.0000e+00
       25  2    1    2    0    0 +0.0000000000e+00 +0.0000000000e+00 -6.1663530732e+02 6.2917732178e+02 1.2500000000e+02 0.0000e+00 0.0000e+00
      -15  1    3    3    0    0 -2.3644488406e+01 -2.0307043736e+01 -5.4002985582e+02 5.4093145662e+02 1.7770000000e+00 0.0000e+00 1.0000e+00
       15  1    3    3    0    0 +2.6316476127e+01 +2.2048665114e+01 -4.5754698744e+01 5.7230680018e+01 1.7770000000e+00 0.0000e+00 1.0000e+00
       22  1    3    3    0    0 -2.6719877213e+00 -1.7416213787e+00 -3.0850752595e+01 3.1015184976e+01 0.0000000000e+00 0.0000e+00 1.0000e+00
<mgrwt>
<rscale>  2 0.12500000E+03</rscale>
<asrwt>0</asrwt>
<pdfrwt beam="1">  1       21 0.92220683E-03 0.12500000E+03</pdfrwt>
<pdfrwt beam="2">  1       21 0.91603881E-01 0.12500000E+03</pdfrwt>
<totfact> 0.36731378E+06</totfact>
</mgrwt>
</event>
<event>
 6      0 +4.1053447e-01 1.25000000e+02 7.54677100e-03 1.12640300e-01
       21 -1    0    0  502  501 +0.0000000000e+00 +0.0000000000e+00 +4.7546130176e+01 4.7546130176e+01 0.0000000000e+00 0.0000e+00 -1.0000e+00
       21 -1    0    0  501  502 -0.0000000000e+00 -0.0000000000e+00 -8.2157054329e+01 8.2157054329e+01 0.0000000000e+00 0.0000e+00 -1.0000e+00
       25  2    1    2    0    0 +0.0000000000e+00 +0.0000000000e+00 -3.4610924154e+01 1.2970318451e+02 1.2500000000e+02 0.0000e+00 0.0000e+00
      -15  1    3    3    0    0 +3.6497319105e+01 +5.0427127238e+01 -2.2810043832e+01 6.6320474154e+01 1.7770000000e+00 0.0000e+00 1.0000e+00
       15  1    3    3    0    0 -3.6497319115e+01 -5.0427127235e+01 -1.1800880301e+01 6.3382710328e+01 1.7770000000e+00 0.0000e+00 1.0000e+00
       22  1    3    3    0    0 +1.0368500755e-08 -3.3997646625e-09 -1.9879761367e-08 2.2677502501e-08 0.0000000000e+00 0.0000e+00 1.0000e+00
<mgrwt>
<rscale>  2 0.12500000E+03</rscale>
<asrwt>0</asrwt>
<pdfrwt beam="1">  1       21 0.69920780E-02 0.12500000E+03</pdfrwt>
<pdfrwt beam="2">  1       21 0.12081920E-01 0.12500000E+03</pdfrwt>
<totfact> 0.88152047E+06</totfact>
</mgrwt>
</event>
<event>
 6      0 +4.1053447e-01 1.25000000e+02 7.54677100e-03 1.12640300e-01
       21 -1    0    0  502  501 +0.0000000000e+00 +0.0000000000e+00 +5.1875657067e+00 5.1875657067e+00 0.0000000000e+00 0.0000e+00 -1.0000e+00
       21 -1    0    0  501  502 -0.0000000000e+00 -0.0000000000e+00 -7.5300251039e+02 7.5300251039e+02 0.0000000000e+00 0.0000e+00 -1.0000e+00
       25  2    1    2    0    0 +0.0000000000e+00 +0.0000000000e+00 -7.4781494469e+02 7.5819007610e+02 1.2500000000e+02 0.0000e+00 0.0000e+00
      -15  1    3    3    0    0 +2.4639746976e+01 -9.8184181749e+00 -3.0831583439e+01 4.0709491926e+01 1.7770000000e+00 0.0000e+00 1.0000e+00
       15  1    3    3    0    0 -2.4647583803e+01 +9.8197675495e+00 -7.1697813349e+02 7.1747106760e+02 1.7770000000e+00 0.0000e+00 1.0000e+00
       22  1    3    3    0    0 +7.8368271830e-03 -1.3493745831e-03 -5.2278877163e-03 9.5166949116e-03 0.0000000000e+00 0.0000e+00 -1.0000e+00
<mgrwt>
<rscale>  2 0.12500000E+03</rscale>
<asrwt>0</asrwt>
<pdfrwt beam="1">  1       21 0.76287741E-03 0.12500000E+03</pdfrwt>
<pdfrwt beam="2">  1       21 0.11073565E+00 0.12500000E+03</pdfrwt>
<totfact> 0.30118072E+06</totfact>
</mgrwt>
</event>
<event>
 6      0 +4.1053447e-01 1.25000000e+02 7.54677100e-03 1.12640300e-01
       21 -1    0    0  502  501 +0.0000000000e+00 +0.0000000000e+00 +4.4603871799e+00 4.4603871799e+00 0.0000000000e+00 0.0000e+00 -1.0000e+00
       21 -1    0    0  501  502 -0.0000000000e+00 -0.0000000000e+00 -8.7576478060e+02 8.7576478060e+02 0.0000000000e+00 0.0000e+00 -1.0000e+00
       25  2    1    2    0    0 +0.0000000000e+00 +0.0000000000e+00 -8.7130439342e+02 8.8022516778e+02 1.2500000000e+02 0.0000e+00 0.0000e+00
      -15  1    3    3    0    0 +5.0400735041e+01 +1.9624657395e+01 -6.5584010267e+02 6.5806896240e+02 1.7770000000e+00 0.0000e+00 -1.0000e+00
       15  1    3    3    0    0 -5.0400727710e+01 -1.9624654027e+01 -2.1546425778e+02 2.2215617144e+02 1.7770000000e+00 0.0000e+00 -1.0000e+00
       22  1    3    3    0    0 -7.3309164884e-06 -3.3680735392e-06 -3.2962895229e-05 3.3935802891e-05 0.0000000000e+00 0.0000e+00 1.0000e+00
<mgrwt>
<rscale>  2 0.12500000E+03</rscale>
<asrwt>0</asrwt>
<pdfrwt beam="1">  1       21 0.65593940E-03 0.12500000E+03</pdfrwt>
<pdfrwt beam="2">  1       21 0.12878892E+00 0.12500000E+03</pdfrwt>
<totfact> 0.25138584E+06</totfact>
</mgrwt>
</event>
<event>
 6      0 +4.1053447e-01 1.25000000e+02 7.54677100e-03 1.12640300e-01
       21 -1    0    0  502  501 +0.0000000000e+00 +0.0000000000e+00 +3.1953638306e+02 3.1953638306e+02 0.0000000000e+00 0.0000e+00 -1.0000e+00
       21 -1    0    0  501  502 -0.0000000000e+00 -0.0000000000e+00 -1.2224742493e+01 1.2224742493e+01 0.0000000000e+00 0.0000e+00 -1.0000e+00
       25  2    1    2    0    0 +0.0000000000e+00 +0.0000000000e+00 +3.0731164057e+02 3.3176112556e+02 1.2500000000e+02 0.0000e+00 0.0000e+00
      -15  1    3    3    0    0 +3.2196818503e+01 +4.3191095854e+01 +2.3762674769e+02 2.4366315854e+02 1.7770000000e+00 0.0000e+00 1.0000e+00
       15  1    3    3    0    0 -3.2196811804e+01 -4.3191112438e+01 +6.9684825778e+01 8.8097897573e+01 1.7770000000e+00 0.0000e+00 1.0000e+00
       22  1    3    3    0    0 -6.6995839967e-06 +1.6583403988e-05 +6.7071214300e-05 6.9414994786e-05 0.0000000000e+00 0.0000e+00 1.0000e+00
<mgrwt>
<rscale>  2 0.12500000E+03</rscale>
<asrwt>0</asrwt>
<pdfrwt beam="1">  1       21 0.46990639E-01 0.12500000E+03</pdfrwt>
<pdfrwt beam="2">  1       21 0.17977565E-02 0.12500000E+03</pdfrwt>
<totfact> 0.60435084E+06</totfact>
</mgrwt>
</event>
<event>
 6      0 +4.1053447e-01 1.25000000e+02 7.54677100e-03 1.12640300e-01
       21 -1    0    0  502  501 +0.0000000000e+00 +0.0000000000e+00 +1.2279931169e+02 1.2279931169e+02 0.0000000000e+00 0.0000e+00 -1.0000e+00
       21 -1    0    0  501  502 -0.0000000000e+00 -0.0000000000e+00 -3.1810031720e+01 3.1810031720e+01 0.0000000000e+00 0.0000e+00 -1.0000e+00
       25  2    1    2    0    0 +0.0000000000e+00 +0.0000000000e+00 +9.0989279967e+01 1.5460934341e+02 1.2500000000e+02 0.0000e+00 0.0000e+00
      -15  1    3    3    0    0 +5.3050094852e+01 +3.2384739497e+01 +5.3318139186e+01 8.1908886034e+01 1.7770000000e+00 0.0000e+00 1.0000e+00
       15  1    3    3    0    0 -5.3050094881e+01 -3.2384739522e+01 +3.7671140753e+01 7.2700457326e+01 1.7770000000e+00 0.0000e+00 1.0000e+00
       22  1    3    3    0    0 +2.9663014050e-08 +2.4704438477e-08 +2.7016576918e-08 4.7117927706e-08 0.0000000000e+00 0.0000e+00 -1.0000e+00
<mgrwt>
<rscale>  2 0.12500000E+03</rscale>
<asrwt>0</asrwt>
<pdfrwt beam="1">  1       21 0.18058722E-01 0.12500000E+03</pdfrwt>
<pdfrwt beam="2">  1       21 0.46779459E-02 0.12500000E+03</pdfrwt>
<totfact> 0.83859702E+06</totfact>
</mgrwt>
</event>
<event>
 6      0 +4.1053447e-01 1.25000000e+02 7.54677100e-03 1.12640300e-01
       21 -1    0    0  502  501 +0.0000000000e+00 +0.0000000000e+00 +5.1147100461e+01 5.1147100461e+01 0.0000000000e+00 0.0000e+00 -1.0000e+00
       21 -1    0    0  501  502 -0.0000000000e+00 -0.0000000000e+00 -7.6372853296e+01 7.6372853296e+01 0.0000000000e+00 0.0000e+00 -1.0000e+00
       25  2    1    2    0    0 +0.0000000000e+00 +0.0000000000e+00 -2.5225752835e+01 1.2751995376e+02 1.2500000000e+02 0.0000e+00 0.0000e+00
      -15  1    3    3    0    0 -4.1297832384e+01 -4.5890415468e+01 -2.2379327767e+01 6.5691957132e+01 1.7770000000e+00 0.0000e+00 1.0000e+00
       15  1    3    3    0    0 +4.1297831432e+01 +4.5890413805e+01 -2.8464229411e+00 6.1827993763e+01 1.7770000000e+00 0.0000e+00 1.0000e+00
       22  1    3    3    0    0 +9.5161600861e-07 +1.6625070345e-06 -2.1265043117e-06 2.8620837261e-06 0.0000000000e+00 0.0000e+00 1.0000e+00
<mgrwt>
<rscale>  2 0.12500000E+03</rscale>
<asrwt>0</asrwt>
<pdfrwt beam="1">  1       21 0.75216325E-02 0.12500000E+03</pdfrwt>
<pdfrwt beam="2">  1       21 0.11231302E-01 0.12500000E+03</pdfrwt>
<totfact> 0.88541955E+06</totfact>
</mgrwt>
</event>
<event>
 6      0 +4.1053447e-01 1.25000000e+02 7.54677100e-03 1.12640300e-01
       21 -1    0    0  502  501 +0.0000000000e+00 +0.0000000000e+00 +8.6739246852e+00 8.6739246852e+00 0.0000000000e+00 0.0000e+00 -1.0000e+00
       21 -1    0    0  501  502 -0.0000000000e+00 -0.0000000000e+00 -4.5034400710e+02 4.5034400710e+02 0.0000000000e+00 0.0000e+00 -1.0000e+00
       25  2    1    2    0    0 +0.0000000000e+00 +0.0000000000e+00 -4.4167008241e+02 4.5901793179e+02 1.2500000000e+02 0.0000e+00 0.0000e+00
      -15  1    3    3    0    0 -6.5156774717e+00 -5.7148456223e+01 -1.3128500853e+02 1.4334333362e+02 1.7770000000e+00 0.0000e+00 1.0000e+00
       15  1    3    3    0    0 +6.5156775260e+00 +5.7148456142e+01 -3.1038507318e+02 3.1567459745e+02 1.7770000000e+00 0.0000e+00 1.0000e+00
       22  1    3    3    0    0 -5.4303804477e-08 +8.0797729149e-08 -5.8419106126e-07 5.9224688456e-07 0.0000000000e+00 0.0000e+00 1.0000e+00
<mgrwt>
<rscale>  2 0.12500000E+03</rscale>
<asrwt>0</asrwt>
<pdfrwt beam="1">  1       21 0.12755772E-02 0.12500000E+03</pdfrwt>
<pdfrwt beam="2">  1       21 0.66227059E-01 0.12500000E+03</pdfrwt>
<totfact> 0.48532170E+06</totfact>
</mgrwt>
</event>
<event>
 6      0 +4.1053447e-01 1.25000000e+02 7.54677100e-03 1.12640300e-01
       21 -1    0    0  502  501 +0.0000000000e+00 +0.0000000000e+00 +8.7209313766e+01 8.7209313766e+01 0.0000000000e+00 0.0000e+00 -1.0000e+00
       21 -1    0    0  501  502 -0.0000000000e+00 -0.0000000000e+00 -4.4791660791e+01 4.4791660791e+01 0.0000000000e+00 0.0000e+00 -1.0000e+00
       25  2    1    2    0    0 +0.0000000000e+00 +0.0000000000e+00 +4.2417652975e+01 1.3200097456e+02 1.2500000000e+02 0.0000e+00 0.0000e+00
      -15  1    3    3    0    0 +2.1355862825e+01 -3.7141045687e+01 +4.1992964457e+01 6.0017471994e+01 1.7770000000e+00 0.0000e+00 -1.0000e+00
       15  1    3    3    0    0 -1.7969151478e+01 +4.7552285492e+01 -1.5034108744e+01 5.3040479023e+01 1.7770000000e+00 0.0000e+00 -1.0000e+00
       22  1    3    3    0    0 -3.3867113470e+00 -1.0411239805e+01 +1.5458797261e+01 1.8943023538e+01 0.0000000000e+00 0.0000e+00 -1.0000e+00
<mgrwt>
<rscale>  2 0.12500000E+03</rscale>
<asrwt>0</asrwt>
<pdfrwt beam="1">  1       21 0.12824899E-01 0.12500000E+03</pdfrwt>
<pdfrwt beam="2">  1       21 0.65870089E-02 0.12500000E+03</pdfrwt>
<totfact> 0.87736042E+06</totfact>
</mgrwt>
</event>
<event>
 6      0 +4.1053447e-01 1.25000000e+02 7.54677100e-03 1.12640300e-01
       21 -1    0    0  502  501 +0.0000000000e+00 +0.0000000000e+00 +1.0527945925e+02 1.0527945925e+02 0.0000000000e+00 0.0000e+00 -1.0000e+00
       21 -1    0    0  501  502 -0.0000000000e+00 -0.0000000000e+00 -3.7103629027e+01 3.7103629027e+01 0.0000000000e+00 0.0000e+00 -1.0000e+00
       25  2    1    2    0    0 +0.0000000000e+00 +0.0000000000e+00 +6.8175830220e+01 1.4238308827e+02 1.2500000000e+02 0.0000e+00 0.0000e+00
      -15  1    3    3    0    0 +3.8959813290e+01 -4.4059915482e+01 +1.0087709197e+01 5.9699772275e+01 1.7770000000e+00 0.0000e+00 1.0000e+00
       15  1    3    3    0    0 -3.8959813308e+01 +4.4059915503e+01 +5.8088121021e+01 8.2683315971e+01 1.7770000000e+00 0.0000e+00 1.0000e+00
       22  1    3    3    0    0 +1.7779050690e-08 -2.1049731403e-08 +3.1492065374e-09 2.7732712405e-08 0.0000000000e+00 0.0000e+00 1.0000e+00
<mgrwt>
<rscale>  2 0.12500000E+03</rscale>
<asrwt>0</asrwt>
<pdfrwt beam="1">  1       21 0.15482273E-01 0.12500000E+03</pdfrwt>
<pdfrwt beam="2">  1       21 0.54564161E-02 0.12500000E+03</pdfrwt>
<totfact> 0.85927357E+06</totfact>
</mgrwt>
</event>
<event>
 6      0 +4.1053447e-01 1.25000000e+02 7.54677100e-03 1.12640300e-01
       21 -1    0    0  502  501 +0.0000000000e+00 +0.0000000000e+00 +2.5152129077e+01 2.5152129077e+01 0.0000000000e+00 0.0000e+00 -1.0000e+00
       21 -1    0    0  501  502 -0.0000000000e+00 -0.0000000000e+00 -1.5530494409e+02 1.5530494409e+02 0.0000000000e+00 0.0000e+00 -1.0000e+00
       25  2    1    2    0    0 +0.0000000000e+00 +0.0000000000e+00 -1.3015281501e+02 1.8045707317e+02 1.2500000000e+02 0.0000e+00 0.0000e+00
      -15  1    3    3    0    0 +5.2349160542e+01 +3.2210030475e+01 -4.8924804965e+01 7.8579354430e+01 1.7770000000e+00 0.0000e+00 1.0000e+00
       15  1    3    3    0    0 -5.2349165480e+01 -3.2210033422e+01 -8.1228007265e+01 1.0187771235e+02 1.7770000000e+00 0.0000e+00 1.0000e+00
       22  1    3    3    0    0 +4.9376707203e-06 +2.9462236114e-06 -2.7709584313e-06 6.3827138695e-06 0.0000000000e+00 0.0000e+00 -1.0000e+00
<mgrwt>
<rscale>  2 0.12500000E+03</rscale>
<asrwt>0</asrwt>
<pdfrwt beam="1">  1       21 0.36988424E-02 0.12500000E+03</pdfrwt>
<pdfrwt beam="2">  1       21 0.22838963E-01 0.12500000E+03</pdfrwt>
<totfact> 0.79736478E+06</totfact>
</mgrwt>
</event>
<event>
 6      0 +4.1053447e-01 1.25000000e+02 7.54677100e-03 1.12640300e-01
       21 -1    0    0  502  501 +0.0000000000e+00 +0.0000000000e+00 +2.2712156995e+01 2.2712156995e+01 0.0000000000e+00 0.0000e+00 1.0000e+00
       21 -1    0    0  501  502 -0.0000000000e+00 -0.0000000000e+00 -1.7198938880e+02 1.7198938880e+02 0.0000000000e+00 0.0000e+00 1.0000e+00
       25  2    1    2    0    0 +0.0000000000e+00 +0.0000000000e+00 -1.4927723181e+02 1.9470154580e+02 1.2500000000e+02 0.0000e+00 0.0000e+00
      -15  1    3    3    0    0 +5.4946799695e+01 -1.0706540474e+01 -1.1784091056e+02 1.3047382395e+02 1.7770000000e+00 0.0000e+00 -1.0000e+00
       15  1    3    3    0    0 -5.4946837637e+01 +1.0706550842e+01 -3.1436098770e+01 6.4227495920e+01 1.7770000000e+00 0.0000e+00 -1.0000e+00
       22  1    3    3    0    0 +3.7941890594e-05 -1.0367405334e-05 -2.2247799797e-04 2.2592815171e-04 0.0000000000e+00 0.0000e+00 -1.0000e+00
<mgrwt>
<rscale>  2 0.12500000E+03</rscale>
<asrwt>0</asrwt>
<pdfrwt beam="1">  1       21 0.33400230E-02 0.12500000E+03</pdfrwt>
<pdfrwt beam="2">  1       21 0.25292558E-01 0.12500000E+03</pdfrwt>
<totfact> 0.77598770E+06</totfact>
</mgrwt>
</event>
<event>
 6      0 +4.1053447e-01 1.25000000e+02 7.54677100e-03 1.12640300e-01
       21 -1    0    0  502  501 +0.0000000000e+00 +0.0000000000e+00 +2.0908460828e+01 2.0908460828e+01 0.0000000000e+00 0.0000e+00 -1.0000e+00
       21 -1    0    0  501  502 -0.0000000000e+00 -0.0000000000e+00 -1.8682628205e+02 1.8682628205e+02 0.0000000000e+00 0.0000e+00 -1.0000e+00
       25  2    1    2    0    0 +0.0000000000e+00 +0.0000000000e+00 -1.6591782123e+02 2.0773474288e+02 1.2500000000e+02 0.0000e+00 0.0000e+00
      -15  1    3    3    0    0 -2.9536787326e+01 -5.1811620897e+01 -1.1230213030e+02 1.2716836110e+02 1.7770000000e+00 0.0000e+00 -1.0000e+00
       15  1    3    3    0    0 +2.9065155824e+01 +5.1287998998e+01 -5.3808472461e+01 7.9835778708e+01 1.7770000000e+00 0.0000e+00 -1.0000e+00
       22  1    3    3    0    0 +4.7163150145e-01 +5.2362189864e-01 +1.9278151500e-01 7.3060309233e-01 0.0000000000e+00 0.0000e+00 1.0000e+00
<mgrwt>
<rscale>  2 0.12500000E+03</rscale>
<asrwt>0</asrwt>
<pdfrwt beam="1">  1       21 0.30747737E-02 0.12500000E+03</pdfrwt>
<pdfrwt beam="2">  1       21 0.27474453E-01 0.12500000E+03</pdfrwt>
<totfact> 0.75705174E+06</totfact>
</mgrwt>
</event>
<event>
 6      0 +4.1053447e-01 1.25000000e+02 7.54677100e-03 1.12640300e-01
       21 -1    0    0  502  501 +0.0000000000e+00 +0.0000000000e+00 +2.6887440055e+02 2.6887440055e+02 0.0000000000e+00 0.0000e+00 -1.0000e+00
       21 -1    0    0  501  502 -0.0000000000e+00 -0.0000000000e+00 -1.4528158843e+01 1.4528158843e+01 0.0000000000e+00 0.0000e+00 -1.0000e+00
       25  2    1    2    0    0 +0.0000000000e+00 +0.0000000000e+00 +2.5434624171e+02 2.8340255939e+02 1.2500000000e+02 0.0000e+00 0.0000e+00
      -15  1    3    3    0    0 -6.2044599289e+01 -6.7298610938e+00 +1.3365675987e+02 1.4751986483e+02 1.7770000000e+00 0.0000e+00 1.0000e+00
       15  1    3    3    0    0 +6.1676066818e+01 +6.6762944829e+00 +1.2002694112e+02 1.3512266446e+02 1.7770000000e+00 0.0000e+00 1.0000e+00
       22  1    3    3    0    0 +3.6853247076e-01 +5.3566610929e-02 +6.6254074040e-01 7.6003012868e-01 0.0000000000e+00 0.0000e+00 1.0000e+00
<mgrwt>
<rscale>  2 0.12500000E+03</rscale>
<asrwt>0</asrwt>
<pdfrwt beam="1">  1       21 0.39540350E-01 0.12500000E+03</pdfrwt>
<pdfrwt beam="2">  1       21 0.21364941E-02 0.12500000E+03</pdfrwt>
<totfact> 0.65886788E+06</totfact>
</mgrwt>
</event>
<event>
 6      0 +4.1053447e-01 1.25000000e+02 7.54677100e-03 1.12640300e-01
       21 -1    0    0  502  501 +0.0000000000e+00 +0.0000000000e+00 +2.0192817749e+02 2.0192817749e+02 0.0000000000e+00 0.0000e+00 -1.0000e+00
       21 -1    0    0  501  502 -0.0000000000e+00 -0.0000000000e+00 -1.9344749447e+01 1.9344749447e+01 0.0000000000e+00 0.0000e+00 -1.0000e+00
       25  2    1    2    0    0 +0.0000000000e+00 +0.0000000000e+00 +1.8258342805e+02 2.2127292694e+02 1.2500000000e+02 0.0000e+00 0.0000e+00
      -15  1    3    3    0    0 +4.0395863960e+01 +7.5004392464e-04 +1.7268463514e+02 1.7735548136e+02 1.7770000000e+00 0.0000e+00 -1.0000e+00
       15  1    3    3    0    0 -4.1456358318e+01 +3.9224345560e-01 +8.9717318804e+00 4.2455072746e+01 1.7770000000e+00 0.0000e+00 -1.0000e+00
       22  1    3    3    0    0 +1.0604943574e+00 -3.9299349952e-01 +9.2706103797e-01 1.4623728461e+00 0.0000000000e+00 0.0000e+00 -1.0000e+00
<mgrwt>
<rscale>  2 0.12500000E+03</rscale>
<asrwt>0</asrwt>
<pdfrwt beam="1">  1       21 0.29695319E-01 0.12500000E+03</pdfrwt>
<pdfrwt beam="2">  1       21 0.28448162E-02 0.12500000E+03</pdfrwt>
<totfact> 0.73818866E+06</totfact>
</mgrwt>
</event>
<event>
 6      0 +4.1053447e-01 1.25000000e+02 7.54677100e-03 1.12640300e-01
       21 -1    0    0  502  501 +0.0000000000e+00 +0.0000000000e+00 +1.3387252219e+02 1.3387252219e+02 0.0000000000e+00 0.0000e+00 1.0000e+00
       21 -1    0    0  501  502 -0.0000000000e+00 -0.0000000000e+00 -2.9178878055e+01 2.9178878055e+01 0.0000000000e+00 0.0000e+00 1.0000e+00
       25  2    1    2    0    0 +0.0000000000e+00 +0.0000000000e+00 +1.0469364414e+02 1.6305140025e+02 1.2500000000e+02 0.0000e+00 0.0000e+00
      -15  1    3    3    0    0 -8.1541628174e+00 -3.9389275068e+01 +4.4712596509e+01 6.0169588475e+01 1.7770000000e+00 0.0000e+00 1.0000e+00
       15  1    3    3    0    0 +1.0267470878e+01 +6.0488553709e+01 +3.7262577376e+01 7.1804898786e+01 1.7770000000e+00 0.0000e+00 1.0000e+00
       22  1    3    3    0    0 -2.1133080609e+00 -2.1099278642e+01 +2.2718470254e+01 3.1076912988e+01 0.0000000000e+00 0.0000e+00 1.0000e+00
<mgrwt>
<rscale>  2 0.12500000E+03</rscale>
<asrwt>0</asrwt>
<pdfrwt beam="1">  1       21 0.19687135E-01 0.12500000E+03</pdfrwt>
<pdfrwt beam="2">  1       21 0.42910115E-02 0.12500000E+03</pdfrwt>
<totfact> 0.82482458E+06</totfact>
</mgrwt>
</event>
<event>
 6      0 +4.1053447e-01 1.25000000e+02 7.54677100e-03 1.12640300e-01
       21 -1    0    0  502  501 +0.0000000000e+00 +0.0000000000e+00 +4.8367820774e+02 4.8367820774e+02 0.0000000000e+00 0.0000e+00 1.0000e+00
       21 -1    0    0  501  502 -0.0000000000e+00 -0.0000000000e+00 -8.0761339616e+00 8.0761339616e+00 0.0000000000e+00 0.0000e+00 1.0000e+00
       25  2    1    2    0    0 +0.0000000000e+00 +0.0000000000e+00 +4.7560207378e+02 4.9175434170e+02 1.2500000000e+02 0.0000e+00 0.0000e+00
      -15  1    3    3    0    0 +5.6195571515e+01 +2.2151065563e+01 +3.0055821281e+02 3.0657300758e+02 1.7770000000e+00 0.0000e+00 -1.0000e+00
       15  1    3    3    0    0 -5.6177443946e+01 -2.2143131690e+01 +1.7498815986e+02 1.8512222263e+02 1.7770000000e+00 0.0000e+00 -1.0000e+00
       22  1    3    3    0    0 -1.8127568672e-02 -7.9338722980e-03 +5.5701153309e-02 5.9111534877e-02 0.0000000000e+00 0.0000e+00 1.0000e+00
<mgrwt>
<rscale>  2 0.12500000E+03</rscale>
<asrwt>0</asrwt>
<pdfrwt beam="1">  1       21 0.71129129E-01 0.12500000E+03</pdfrwt>
<pdfrwt beam="2">  1       21 0.11876671E-02 0.12500000E+03</pdfrwt>
<totfact> 0.45945619E+06</totfact>
</mgrwt>
</event>
<event>
 6      0 +4.1053447e-01 1.25000000e+02 7.54677100e-03 1.12640300e-01
       21 -1    0    0  502  501 +0.0000000000e+00 +0.0000000000e+00 +1.2227017100e+02 1.2227017100e+02 0.0000000000e+00 0.0000e+00 1.0000e+00
       21 -1    0    0  501  502 -0.0000000000e+00 -0.0000000000e+00 -3.1947693931e+01 3.1947693931e+01 0.0000000000e+00 0.0000e+00 1.0000e+00
       25  2    1    2    0    0 +0.0000000000e+00 +0.0000000000e+00 +9.0322477069e+01 1.5421786493e+02 1.2500000000e+02 0.0000e+00 0.0000e+00
      -15  1    3    3    0    0 -3.9898889372e+01 +3.9286335016e+01 +1.0976210736e+01 5.7087410375e+01 1.7770000000e+00 0.0000e+00 -1.0000e+00
       15  1    3    3    0    0 +3.9898889372e+01 -3.9286335016e+01 +7.9346266334e+01 9.7130454557e+01 1.7770000000e+00 0.0000e+00 -1.0000e+00
       22  1    3    3    0    0 +3.9877295092e-11 +1.7393544907e-10 +4.4035973042e-10 4.7514253786e-10 0.0000000000e+00 0.0000e+00 1.0000e+00
<mgrwt>
<rscale>  2 0.12500000E+03</rscale>
<asrwt>0</asrwt>
<pdfrwt beam="1">  1       21 0.17980907E-01 0.12500000E+03</pdfrwt>
<pdfrwt beam="2">  1       21 0.46981903E-02 0.12500000E+03</pdfrwt>
<totfact> 0.83924202E+06</totfact>
</mgrwt>
</event>
<event>
 6      0 +4.1053447e-01 1.25000000e+02 7.54677100e-03 1.12640300e-01
       21 -1    0    0  502  501 +0.0000000000e+00 +0.0000000000e+00 +2.6503010083e+02 2.6503010083e+02 0.0000000000e+00 0.0000e+00 1.0000e+00
       21 -1    0    0  501  502 -0.0000000000e+00 -0.0000000000e+00 -1.4738891876e+01 1.4738891876e+01 0.0000000000e+00 0.0000e+00 1.0000e+00
       25  2    1    2    0    0 +0.0000000000e+00 +0.0000000000e+00 +2.5029120895e+02 2.7976899270e+02 1.2500000000e+02 0.0000e+00 0.0000e+00
      -15  1    3    3    0    0 +5.0814426381e+01 +2.9228097025e+01 +7.9581803734e+01 9.8857517664e+01 1.7770000000e+00 0.0000e+00 1.0000e+00
       15  1    3    3    0    0 -4.5216423126e+01 -2.5634060152e+01 +1.6058827083e+02 1.6879982351e+02 1.7770000000e+00 0.0000e+00 1.0000e+00
       22  1    3    3    0    0 -5.5980032543e+00 -3.5940368733e+00 +1.0121134398e+01 1.2111651538e+01 0.0000000000e+00 0.0000e+00 1.0000e+00
<mgrwt>
<rscale>  2 0.12500000E+03</rscale>
<asrwt>0</asrwt>
<pdfrwt beam="1">  1       21 0.38975012E-01 0.12500000E+03</pdfrwt>
<pdfrwt beam="2">  1       21 0.21674843E-02 0.12500000E+03</pdfrwt>
<totfact> 0.66318961E+06</totfact>
</mgrwt>
</event>
<event>
 6      0 +4.1053447e-01 1.25000000e+02 7.54677100e-03 1.12640300e-01
       21 -1    0    0  502  501 +0.0000000000e+00 +0.0000000000e+00 +1.2437998793e+02 1.2437998793e+02 0.0000000000e+00 0.0000e+00 -1.0000e+00
       21 -1    0    0  501  502 -0.0000000000e+00 -0.0000000000e+00 -3.1405775680e+01 3.1405775680e+01 0.0000000000e+00 0.0000e+00 -1.0000e+00
       25  2    1    2    0    0 +0.0000000000e+00 +0.0000000000e+00 +9.2974212249e+01 1.5578576361e+02 1.2500000000e+02 0.0000e+00 0.0000e+00
      -15  1    3    3    0    0 -4.5196021849e+00 +6.0960744313e+01 +3.0407932576e+01 6.8296700093e+01 1.7770000000e+00 0.0000e+00 -1.0000e+00
       15  1    3    3    0    0 +4.5196021865e+00 -6.0960744323e+01 +6.2566279668e+01 8.7489063505e+01 1.7770000000e+00 0.0000e+00 -1.0000e+00
       22  1    3    3    0    0 -1.6473980858e-09 +1.0048682013e-08 +4.1179098667e-09 1.0983947938e-08 0.0000000000e+00 0.0000e+00 -1.0000e+00
<mgrwt>
<rscale>  2 0.12500000E+03</rscale>
<asrwt>0</asrwt>
<pdfrwt beam="1">  1       21 0.18291174E-01 0.12500000E+03</pdfrwt>
<pdfrwt beam="2">  1       21 0.46184965E-02 0.12500000E+03</pdfrwt>
<totfact> 0.83666414E+06</totfact>
</mgrwt>
</event>
<event>
 6      0 +4.1053447e-01 1.25000000e+02 7.54677100e-03 1.12640300e-01
       21 -1    0    0  502  501 +0.0000000000e+00 +0.0000000000e+00 +4.1017718405e+02 4.1017718405e+02 0.0000000000e+00 0.0000e+00 -1.0000e+00
       21 -1    0    0  501  502 -0.0000000000e+00 -0.0000000000e+00 -9.5233234609e+00 9.5233234609e+00 0.0000000000e+00 0.0000e+00 -1.0000e+00
       25  2    1    2    0    0 +0.0000000000e+00 +0.0000000000e+00 +4.0065386059e+02 4.1970050751e+02 1.2500000000e+02 0.0000e+00 0.0000e+00
      -15  1    3    3    0    0 -3.1658218582e+01 -7.0364817952e+00 +2.1037872187e+01 3.8697605545e+01 1.7770000000e+00 0.0000e+00 -1.0000e+00
       15  1    3    3    0    0 +3.1658112108e+01 +7.0364467840e+00 +3.7961466894e+02 3.8100157775e+02 1.7770000000e+00 0.0000e+00 -1.0000e+00
       22  1    3    3    0    0 +1.0647379824e-04 +3.5011228942e-05 +1.3194873020e-03 1.3242391008e-03 0.0000000000e+00 0.0000e+00 -1.0000e+00
<mgrwt>
<rscale>  2 0.12500000E+03</rscale>
<asrwt>0</asrwt>
<pdfrwt beam="1">  1       21 0.60320162E-01 0.12500000E+03</pdfrwt>
<pdfrwt beam="2">  1       21 0.14004890E-02 0.12500000E+03</pdfrwt>
<totfact> 0.51874474E+06</totfact>
</mgrwt>
</event>
<event>
 6      0 +4.1053447e-01 1.25000000e+02 7.54677100e-03 1.12640300e-01
       21 -1    0    0  502  501 +0.0000000000e+00 +0.0000000000e+00 +1.1513762386e+03 1.1513762386e+03 0.0000000000e+00 0.0000e+00 1.0000e+00
       21 -1    0    0  501  502 -0.0000000000e+00 -0.0000000000e+00 -3.3926790124e+00 3.3926790124e+00 0.0000000000e+00 0.0000e+00 1.0000e+00
       25  2    1    2    0    0 +0.0000000000e+00 +0.0000000000e+00 +1.1479835596e+03 1.1547689176e+03 1.2500000000e+02 0.0000e+00 0.0000e+00
      -15  1    3    3    0    0 -4.0504989916e+01 +5.1435177633e+00 +1.4450525419e+02 1.5017335383e+02 1.7770000000e+00 0.0000e+00 1.0000e+00
       15  1    3    3    0    0 +4.1852338492e+01 -6.4207792896e+00 +9.9559623285e+02 9.9649779790e+02 1.7770000000e+00 0.0000e+00 1.0000e+00
       22  1    3    3    0    0 -1.3473485761e+00 +1.2772615262e+00 +7.8820746493e+00 8.0977679622e+00 0.0000000000e+00 0.0000e+00 -1.0000e+00
<mgrwt>
<rscale>  2 0.12500000E+03</rscale>
<asrwt>0</asrwt>
<pdfrwt beam="1">  1       21 0.16931976E+00 0.12500000E+03</pdfrwt>
<pdfrwt beam="2">  1       21 0.49892418E-03 0.12500000E+03</pdfrwt>
<totfact> 0.17059667E+06</totfact>
</mgrwt>
</event>
<event>
 6      0 +4.1053447e-01 1.25000000e+02 7.54677100e-03 1.12640300e-01
       21 -1    0    0  502  501 +0.0000000000e+00 +0.0000000000e+00 +2.2682842104e+02 2.2682842104e+02 0.0000000000e+00 0.0000e+00 1.0000e+00
       21 -1    0    0  501  502 -0.0000000000e+00 -0.0000000000e+00 -1.7221166475e+01 1.7221166475e+01 0.0000000000e+00 0.0000e+00 1.0000e+00
       25  2    1    2    0    0 +0.0000000000e+00 +0.0000000000e+00 +2.0960725457e+02 2.4404958752e+02 1.2500000000e+02 0.0000e+00 0.0000e+00
      -15  1    3    3    0    0 -2.6360295892e+01 +1.0682857868e+01 +2.1340488639e+02 2.1529930774e+02 1.7770000000e+00 0.0000e+00 1.0000e+00
       15  1    3    3    0    0 +2.6359460197e+01 -1.0682302311e+01 -3.7980646139e+00 2.8749186915e+01 1.7770000000e+00 0.0000e+00 1.0000e+00
       22  1    3    3    0    0 +8.3569554007e-04 -5.5555658137e-04 +4.3279377308e-04 1.0928589117e-03 0.0000000000e+00 0.0000e+00 -1.0000e+00
<mgrwt>
<rscale>  2 0.12500000E+03</rscale>
<asrwt>0</asrwt>
<pdfrwt beam="1">  1       21 0.33357119E-01 0.12500000E+03</pdfrwt>
<pdfrwt beam="2">  1       21 0.25325246E-02 0.12500000E+03</pdfrwt>
<totfact> 0.70774389E+06</totfact>
</mgrwt>
</event>
<event>
 6      0 +4.1053447e-01 1.25000000e+02 7.54677100e-03 1.12640300e-01
       21 -1    0    0  502  501 +0.0000000000e+00 +0.0000000000e+00 +1.5760022908e+01 1.5760022908e+01 0.0000000000e+00 0.0000e+00 1.0000e+00
       21 -1    0    0  501  502 -0.0000000000e+00 -0.0000000000e+00 -2.4785814227e+02 2.4785814227e+02 0.0000000000e+00 0.0000e+00 1.0000e+00
       25  2    1    2    0    0 +0.0000000000e+00 +0.0000000000e+00 -2.3209811936e+02 2.6361816518e+02 1.2500000000e+02 0.0000e+00 0.0000e+00
      -15  1    3    3    0    0 -2.0658049172e+01 -5.8788255647e+01 -1.2554593224e+02 1.4017044206e+02 1.7770000000e+00 0.0000e+00 1.0000e+00
       15  1    3    3    0    0 +2.0658046846e+01 +5.8788253095e+01 -1.0655218136e+02 1.2344771640e+02 1.7770000000e+00 0.0000e+00 1.0000e+00
       22  1    3    3    0    0 +2.3259005135e-06 +2.5520255822e-06 -5.7434685962e-06 6.7014982867e-06 0.0000000000e+00 0.0000e+00 -1.0000e+00
<mgrwt>
<rscale>  2 0.12500000E+03</rscale>
<asrwt>0</asrwt>
<pdfrwt beam="1">  1       21 0.23176505E-02 0.12500000E+03</pdfrwt>
<pdfrwt beam="2">  1       21 0.36449725E-01 0.12500000E+03</pdfrwt>
<totfact> 0.68283775E+06</totfact>
</mgrwt>
</event>
<event>
 6      0 +4.1053447e-01 1.25000000e+02 7.54677100e-03 1.12640300e-01
       21 -1    0    0  502  501 +0.0000000000e+00 +0.0000000000e+00 +6.3772960174e+02 6.3772960174e+02 0.0000000000e+00 0.0000e+00 -1.0000e+00
       21 -1    0    0  501  502 -0.0000000000e+00 -0.0000000000e+00 -6.1252449147e+00 6.1252449147e+00 0.0000000000e+00 0.0000e+00 -1.0000e+00
       25  2    1    2    0    0 +0.0000000000e+00 +0.0000000000e+00 +6.3160435682e+02 6.4385484665e+02 1.2500000000e+02 0.0000e+00 0.0000e+00
      -15  1    3    3    0    0 +8.6903472684e+00 +1.6517670066e+01 +8.7009315625e+00 2.0669288792e+01 1.7770000000e+00 0.0000e+00 -1.0000e+00
       15  1    3    3    0    0 -8.6859425629e+00 -1.6514212007e+01 +6.2279362923e+02 6.2307561912e+02 1.7770000000e+00 0.0000e+00 -1.0000e+00
       22  1    3    3    0    0 -4.4047054888e-03 -3.4580586410e-03 +1.0979601136e-01 1.0993872707e-01 0.0000000000e+00 0.0000e+00 -1.0000e+00
<mgrwt>
<rscale>  2 0.12500000E+03</rscale>
<asrwt>0</asrwt>
<pdfrwt beam="1">  1       21 0.93783719E-01 0.12500000E+03</pdfrwt>
<pdfrwt beam="2">  1       21 0.90077175E-03 0.12500000E+03</pdfrwt>
<totfact> 0.35894616E+06</totfact>
</mgrwt>
</event>
<event>
 6      0 +4.1053447e-01 1.25000000e+02 7.54677100e-03 1.12640300e-01
       21 -1    0    0  502  501 +0.0000000000e+00 +0.0000000000e+00 +8.4498765288e+01 8.4498765288e+01 0.0000000000e+00 0.0000e+00 -1.0000e+00
       21 -1    0    0  501  502 -0.0000000000e+00 -0.0000000000e+00 -4.6228486141e+01 4.6228486141e+01 0.0000000000e+00 0.0000e+00 -1.0000e+00
       25  2    1    2    0    0 +0.0000000000e+00 +0.0000000000e+00 +3.8270279147e+01 1.3072725143e+02 1.2500000000e+02 0.0000e+00 0.0000e+00
      -15  1    3    3    0    0 +5.0841958219e+01 -2.8228559153e+01 -4.7437663008e+00 5.8373087250e+01 1.7770000000e+00 0.0000e+00 1.0000e+00
       15  1    3    3    0    0 -5.0817630030e+01 +2.8215382699e+01 +4.2992607065e+01 7.2319162979e+01 1.7770000000e+00 0.0000e+00 1.0000e+00
       22  1    3    3    0    0 -2.4328188412e-02 +1.3176453717e-02 +2.1438382117e-02 3.5001198719e-02 0.0000000000e+00 0.0000e+00 -1.0000e+00
<mgrwt>
<rscale>  2 0.12500000E+03</rscale>
<asrwt>0</asrwt>
<pdfrwt beam="1">  1       21 0.12426289E-01 0.12500000E+03</pdfrwt>
<pdfrwt beam="2">  1       21 0.67983068E-02 0.12500000E+03</pdfrwt>
<totfact> 0.87965479E+06</totfact>
</mgrwt>
</event>
<event>
 6      0 +4.1053447e-01 1.25000000e+02 7.54677100e-03 1.12640300e-01
       21 -1    0    0  502  501 +0.0000000000e+00 +0.0000000000e+00 +8.5406301399e+00 8.5406301399e+00 0.0000000000e+00 0.0000e+00 1.0000e+00
       21 -1    0    0  501  502 -0.0000000000e+00 -0.0000000000e+00 -4.5737257509e+02 4.5737257509e+02 0.0000000000e+00 0.0000e+00 1.0000e+00
       25  2    1    2    0    0 +0.0000000000e+00 +0.0000000000e+00 -4.4883194495e+02 4.6591320523e+02 1.2500000000e+02 0.0000e+00 0.0000e+00
      -15  1    3    3    0    0 -8.7381806104e+00 -4.6373258770e+01 -7.1902394400e+01 8.6022944490e+01 1.7770000000e+00 0.0000e+00 -1.0000e+00
       15  1    3    3    0    0 +8.9911878216e+00 +4.5319021050e+01 -3.6670965970e+02 3.6961302381e+02 1.7770000000e+00 0.0000e+00 -1.0000e+00
       22  1    3    3    0    0 -2.5300721120e-01 +1.0542377201e+00 -1.0219890853e+01 1.0277236928e+01 0.0000000000e+00 0.0000e+00 1.0000e+00
<mgrwt>
<rscale>  2 0.12500000E+03</rscale>
<asrwt>0</asrwt>
<pdfrwt beam="1">  1       21 0.12559746E-02 0.12500000E+03</pdfrwt>
<pdfrwt beam="2">  1       21 0.67260693E-01 0.12500000E+03</pdfrwt>
<totfact> 0.47972465E+06</totfact>
</mgrwt>
</event>
<event>
 6      0 +4.1053447e-01 1.25000000e+02 7.54677100e-03 1.12640300e-01
       21 -1    0    0  502  501 +0.0000000000e+00 +0.0000000000e+00 +7.5043134127e+01 7.5043134127e+01 0.0000000000e+00 0.0000e+00 -1.0000e+00
       21 -1    0    0  501  502 -0.0000000000e+00 -0.0000000000e+00 -5.2053396296e+01 5.2053396296e+01 0.0000000000e+00 0.0000e+00 -1.0000e+00
       25  2    1    2    0    0 +0.0000000000e+00 +0.0000000000e+00 +2.2989737831e+01 1.2709653042e+02 1.2500000000e+02 0.0000e+00 0.0000e+00
      -15  1    3    3    0    0 +2.7080536228e+01 +2.9592498981e+01 -3.7204390944e+01 5.4739344834e+01 1.7770000000e+00 0.0000e+00 1.0000e+00
       15  1    3    3    0    0 -2.7080536228e+01 -2.9592498981e+01 +6.0194128775e+01 7.2357185589e+01 1.7770000000e+00 0.0000e+00 1.0000e+00
       22  1    3    3    0    0 -2.7131292665e-10 +3.4524024800e-11 -1.2275316771e-10 2.9978484391e-10 0.0000000000e+00 0.0000e+00 -1.0000e+00
<mgrwt>
<rscale>  2 0.12500000E+03</rscale>
<asrwt>0</asrwt>
<pdfrwt beam="1">  1       21 0.11035755E-01 0.12500000E+03</pdfrwt>
<pdfrwt beam="2">  1       21 0.76549112E-02 0.12500000E+03</pdfrwt>
<totfact> 0.88616422E+06</totfact>
</mgrwt>
</event>
<event>
 6      0 +4.1053447e-01 1.25000000e+02 7.54677100e-03 1.12640300e-01
       21 -1    0    0  502  501 +0.0000000000e+00 +0.0000000000e+00 +1.3486814254e+01 1.3486814254e+01 0.0000000000e+00 0.0000e+00 -1.0000e+00
       21 -1    0    0  501  502 -0.0000000000e+00 -0.0000000000e+00 -2.8963474445e+02 2.8963474445e+02 0.0000000000e+00 0.0000e+00 -1.0000e+00
       25  2    1    2    0    0 +0.0000000000e+00 +0.0000000000e+00 -2.7614793020e+02 3.0312155871e+02 1.2500000000e+02 0.0000e+00 0.0000e+00
      -15  1    3    3    0    0 +4.5598523572e+01 -3.5423651437e+01 -8.0227730356e+01 9.8862059862e+01 1.7770000000e+00 0.0000e+00 1.0000e+00
       15  1    3    3    0    0 -4.5598522987e+01 +3.5423650976e+01 -1.9592019740e+02 2.0425949629e+02 1.7770000000e+00 0.0000e+00 1.0000e+00
       22  1    3    3    0    0 -5.8482245595e-07 +4.6109780639e-07 -2.4378525389e-06 2.5490691425e-06 0.0000000000e+00 0.0000e+00 -1.0000e+00
<mgrwt>
<rscale>  2 0.12500000E+03</rscale>
<asrwt>0</asrwt>
<pdfrwt beam="1">  1       21 0.19833549E-02 0.12500000E+03</pdfrwt>
<pdfrwt beam="2">  1       21 0.42593349E-01 0.12500000E+03</pdfrwt>
<totfact> 0.63592762E+06</totfact>
</mgrwt>
</event>
<event>
 6      0 +4.1053447e-01 1.25000000e+02 7.54677100e-03 1.12640300e-01
       21 -1    0    0  502  501 +0.0000000000e+00 +0.0000000000e+00 +3.2120078749e+02 3.2120078749e+02 0.0000000000e+00 0.0000e+00 -1.0000e+00
       21 -1    0    0  501  502 -0.0000000000e+00 -0.0000000000e+00 -1.2161396087e+01 1.2161396087e+01 0.0000000000e+00 0.0000e+00 -1.0000e+00
       25  2    1    2    0    0 +0.0000000000e+00 +0.0000000000e+00 +3.0903939141e+02 3.3336218358e+02 1.2500000000e+02 0.0000e+00 0.0000e+00
      -15  1    3    3    0    0 +3.0946658835e+01 +1.3004754533e+01 +1.3999963523e+01 3.6413953935e+01 1.7770000000e+00 0.0000e+00 -1.0000e+00
       15  1    3    3    0    0 -3.0944956001e+01 -1.3004370262e+01 +2.9502886341e+02 2.9693752192e+02 1.7770000000e+00 0.0000e+00 -1.0000e+00
       22  1    3    3    0    0 -1.7028340075e-03 -3.8427032600e-04 +1.0564497441e-02 1.0707750161e-02 0.0000000000e+00 0.0000e+00 1.0000e+00
<mgrwt>
<rscale>  2 0.12500000E+03</rscale>
<asrwt>0</asrwt>
<pdfrwt beam="1">  1       21 0.47235404E-01 0.12500000E+03</pdfrwt>
<pdfrwt beam="2">  1       21 0.17884408E-02 0.12500000E+03</pdfrwt>
<totfact> 0.60264655E+06</totfact>
</mgrwt>
</event>
<event>
 6      0 +4.1053447e-01 1.25000000e+02 7.54677100e-03 1.12640300e-01
       21 -1    0    0  502  501 +0.0000000000e+00 +0.0000000000e+00 +4.9013112389e+01 4.9013112389e+01 0.0000000000e+00 0.0000e+00 -1.0000e+00
       21 -1    0    0  501  502 -0.0000000000e+00 -0.0000000000e+00 -7.9698060572e+01 7.9698060572e+01 0.0000000000e+00 0.0000e+00 -1.0000e+00
       25  2    1    2    0    0 +0.0000000000e+00 +0.0000000000e+00 -3.0684948184e+01 1.2871117296e+02 1.2500000000e+02 0.0000e+00 0.0000e+00
      -15  1    3    3    0    0 -3.3889101718e+01 +1.8941241336e+01 -6.5657765334e+01 7.6297717635e+01 1.7770000000e+00 0.0000e+00 1.0000e+00
       15  1    3    3    0    0 +3.3923591020e+01 -1.8955186435e+01 +3.5027813090e+01 5.2347058555e+01 1.7770000000e+00 0.0000e+00 1.0000e+00
       22  1    3    3    0    0 -3.4489302337e-02 +1.3945098867e-02 -5.4995940765e-02 6.6396771448e-02 0.0000000000e+00 0.0000e+00 1.0000e+00
<mgrwt>
<rscale>  2 0.12500000E+03</rscale>
<asrwt>0</asrwt>
<pdfrwt beam="1">  1       21 0.72078107E-02 0.12500000E+03</pdfrwt>
<pdfrwt beam="2">  1       21 0.11720303E-01 0.12500000E+03</pdfrwt>
<totfact> 0.88331200E+06</totfact>
</mgrwt>
</event>
<event>
 6      0 +4.1053447e-01 1.25000000e+02 7.54677100e-03 1.12640300e-01
       21 -1    0    0  502  501 +0.0000000000e+00 +0.0000000000e+00 +3.9037418513e+02 3.9037418513e+02 0.0000000000e+00 0.0000e+00 -1.0000e+00
       21 -1    0    0  501  502 -0.0000000000e+00 -0.0000000000e+00 -1.0006424986e+01 1.0006424986e+01 0.0000000000e+00 0.0000e+00 -1.0000e+00
       25  2    1    2    0    0 +0.0000000000e+00 +0.0000000000e+00 +3.8036776014e+02 4.0038061011e+02 1.2500000000e+02 0.0000e+00 0.0000e+00
      -15  1    3    3    0    0 -5.0239800544e+01 -3.6561515353e+00 +3.0798398218e+02 3.1208123304e+02 1.7770000000e+00 0.0000e+00 1.0000e+00
       15  1    3    3    0    0 +4.8903942435e+01 +2.8706533638e+00 +7.0104147034e+01 8.5542886302e+01 1.7770000000e+00 0.0000e+00 1.0000e+00
       22  1    3    3    0    0 +1.3358581095e+00 +7.8549817153e-01 +2.2796309487e+00 2.7564907997e+00 0.0000000000e+00 0.0000e+00 -1.0000e+00
<mgrwt>
<rscale>  2 0.12500000E+03</rscale>
<asrwt>0</asrwt>
<pdfrwt beam="1">  1       21 0.57407958E-01 0.12500000E+03</pdfrwt>
<pdfrwt beam="2">  1       21 0.14715334E-02 0.12500000E+03</pdfrwt>
<totfact> 0.53620778E+06</totfact>
</mgrwt>
</event>
<event>
 6      0 +4.1053447e-01 1.25000000e+02 7.54677100e-03 1.12640300e-01
       21 -1    0    0  502  501 +0.0000000000e+00 +0.0000000000e+00 +6.0646862342e+01 6.0646862342e+01 0.0000000000e+00 0.0000e+00 -1.0000e+00
       21 -1    0    0  501  502 -0.0000000000e+00 -0.0000000000e+00 -6.4409762503e+01 6.4409762503e+01 0.0000000000e+00 0.0000e+00 -1.0000e+00
       25  2    1    2    0    0 +0.0000000000e+00 +0.0000000000e+00 -3.7629001601e+00 1.2505662484e+02 1.2500000000e+02 0.0000e+00 0.0000e+00
      -15  1    3    3    0    0 +2.1447477133e+01 -4.5750652931e+01 +3.4877055105e+01 6.1422172061e+01 1.7770000000e+00 0.0000e+00 -1.0000e+00
       15  1    3    3    0    0 -2.1447467766e+01 +4.5750720848e+01 -3.8640022262e+01 6.3634356924e+01 1.7770000000e+00 0.0000e+00 -1.0000e+00
       22  1    3    3    0    0 -9.3666637630e-06 -6.7917508035e-05 +6.6997089581e-05 9.5859961923e-05 0.0000000000e+00 0.0000e+00 -1.0000e+00
<mgrwt>
<rscale>  2 0.12500000E+03</rscale>
<asrwt>0</asrwt>
<pdfrwt beam="1">  1       21 0.89186563E-02 0.12500000E+03</pdfrwt>
<pdfrwt beam="2">  1       21 0.94720238E-02 0.12500000E+03</pdfrwt>
<totfact> 0.88990263E+06</totfact>
</mgrwt>
</event>
<event>
 6      0 +4.1053447e-01 1.25000000e+02 7.54677100e-03 1.12640300e-01
       21 -1    0    0  502  501 +0.0000000000e+00 +0.0000000000e+00 +1.8226711168e+02 1.8226711168e+02 0.0000000000e+00 0.0000e+00 -1.0000e+00
       21 -1    0    0  501  502 -0.0000000000e+00 -0.0000000000e+00 -2.1431458281e+01 2.1431458281e+01 0.0000000000e+00 0.0000e+00 -1.0000e+00
       25  2    1    2    0    0 +0.0000000000e+00 +0.0000000000e+00 +1.6083565340e+02 2.0369856996e+02 1.2500000000e+02 0.0000e+00 0.0000e+00
      -15  1    3    3    0    0 +1.0520386497e+01 +1.1119836749e+01 +1.6835097104e+02 1.6905483276e+02 1.7770000000e+00 0.0000e+00 1.0000e+00
       15  1    3    3    0    0 -9.7354210268e+00 -1.4328395032e+01 -1.7160659541e+01 2.4448461948e+01 1.7770000000e+00 0.0000e+00 1.0000e+00
       22  1    3    3    0    0 -7.8496546992e-01 +3.2085582833e+00 +9.6453419044e+00 1.0195275254e+01 0.0000000000e+00 0.0000e+00 1.0000e+00
<mgrwt>
<rscale>  2 0.12500000E+03</rscale>
<asrwt>0</asrwt>
<pdfrwt beam="1">  1       21 0.26803986E-01 0.12500000E+03</pdfrwt>
<pdfrwt beam="2">  1       21 0.31516851E-02 0.12500000E+03</pdfrwt>
<totfact> 0.76282690E+06</totfact>
</mgrwt>
</event>
<event>
 6      0 +4.1053447e-01 1.25000000e+02 7.54677100e-03 1.12640300e-01
       21 -1    0    0  502  501 +0.0000000000e+00 +0.0000000000e+00 +9.6494687732e+02 9.6494687732e+02 0.0000000000e+00 0.0000e+00 -1.0000e+00
       21 -1    0    0  501  502 -0.0000000000e+00 -0.0000000000e+00 -4.0481503094e+00 4.0481503094e+00 0.0000000000e+00 0.0000e+00 -1.0000e+00
       25  2    1    2    0    0 +0.0000000000e+00 +0.0000000000e+00 +9.6089872701e+02 9.6899502763e+02 1.2500000000e+02 0.0000e+00 0.0000e+00
      -15  1    3    3    0    0 +7.8377784845e+00 +5.6939693471e+01 +6.7007069840e+02 6.7253361109e+02 1.7770000000e+00 0.0000e+00 -1.0000e+00
       15  1    3    3    0    0 -7.8385990571e+00 -5.6945879125e+01 +2.9075344672e+02 2.9638657407e+02 1.7770000000e+00 0.0000e+00 -1.0000e+00
       22  1    3    3    0    0 +8.2057263982e-04 +6.1856537030e-03 +7.4581827060e-02 7.4842398270e-02 0.0000000000e+00 0.0000e+00 1.0000e+00
<mgrwt>
<rscale>  2 0.12500000E+03</rscale>
<asrwt>0</asrwt>
<pdfrwt beam="1">  1       21 0.14190379E+00 0.12500000E+03</pdfrwt>
<pdfrwt beam="2">  1       21 0.59531689E-03 0.12500000E+03</pdfrwt>
<totfact> 0.22130372E+06</totfact>
</mgrwt>
</event>
<event>
 6      0 +4.1053447e-01 1.25000000e+02 7.54677100e-03 1.12640300e-01
       21 -1    0    0  502  501 +0.0000000000e+00 +0.0000000000e+00 +1.1793381817e+01 1.1793381817e+01 0.0000000000e+00 0.0000e+00 -1.0000e+00
       21 -1    0    0  501  502 -0.0000000000e+00 -0.0000000000e+00 -3.3122390682e+02 3.3122390682e+02 0.0000000000e+00 0.0000e+00 -1.0000e+00
       25  2    1    2    0    0 +0.0000000000e+00 +0.0000000000e+00 -3.1943052501e+02 3.4301728864e+02 1.2500000000e+02 0.0000e+00 0.0000e+00
      -15  1    3    3    0    0 -2.1766424777e+01 -1.2954412392e+01 -2.8974598499e+02 2.9085647250e+02 1.7770000000e+00 0.0000e+00 1.0000e+00
       15  1    3    3    0    0 +2.1836962028e+01 +1.4215207957e+01 -3.9716990890e+00 2.6416986402e+01 1.7770000000e+00 0.0000e+00 1.0000e+00
       22  1    3    3    0    0 -7.0537251086e-02 -1.2607955651e+00 -2.5712840955e+01 2.5743829765e+01 0.0000000000e+00 0.0000e+00 1.0000e+00
<mgrwt>
<rscale>  2 0.12500000E+03</rscale>
<asrwt>0</asrwt>
<pdfrwt beam="1">  1       21 0.17343206E-02 0.12500000E+03</pdfrwt>
<pdfrwt beam="2">  1       21 0.48709405E-01 0.12500000E+03</pdfrwt>
<totfact> 0.59249689E+06</totfact>
</mgrwt>
</event>
<event>
 6      0 +4.1053447e-01 1.25000000e+02 7.54677100e-03 1.12640300e-01
       21 -1    0    0  502  501 +0.0000000000e+00 +0.0000000000e+00 +1.7411335516e+02 1.7411335516e+02 0.0000000000e+00 0.0000e+00 -1.0000e+00
       21 -1    0    0  501  502 -0.0000000000e+00 -0.0000000000e+00 -2.2435096930e+01 2.2435096930e+01 0.0000000000e+00 0.0000e+00 -1.0000e+00
       25  2    1    2    0    0 +0.0000000000e+00 +0.0000000000e+00 +1.5167825823e+02 1.9654845210e+02 1.2500000000e+02 0.0000e+00 0.0000e+00
      -15  1    3    3    0    0 -1.9640751442e-01 -5.7051434942e+01 +9.5253169483e+01 1.1104606625e+02 1.7770000000e+00 0.0000e+00 -1.0000e+00
       15  1    3    3    0    0 -7.3584340646e-02 +6.0380943380e+01 +5.0654274268e+01 7.8834490985e+01 1.7770000000e+00 0.0000e+00 -1.0000e+00
       22  1    3    3    0    0 +2.6999185507e-01 -3.3295084379e+00 +5.7708144659e+00 6.6678948432e+00 0.0000000000e+00 0.0000e+00 -1.0000e+00
<mgrwt>
<rscale>  2 0.12500000E+03</rscale>
<asrwt>0</asrwt>
<pdfrwt beam="1">  1       21 0.25604904E-01 0.12500000E+03</pdfrwt>
<pdfrwt beam="2">  1       21 0.32992791E-02 0.12500000E+03</pdfrwt>
<totfact> 0.77325678E+06</totfact>
</mgrwt>
</event>
<event>
 6      0 +4.1053447e-01 1.25000000e+02 7.54677100e-03 1.12640300e-01
       21 -1    0    0  502  501 +0.0000000000e+00 +0.0000000000e+00 +1.8682488975e+03 1.8682488975e+03 0.0000000000e+00 0.0000e+00 -1.0000e+00
       21 -1    0    0  501  502 -0.0000000000e+00 -0.0000000000e+00 -2.0908616648e+00 2.0908616648e+00 0.0000000000e+00 0.0000e+00 -1.0000e+00
       25  2    1    2    0    0 +0.0000000000e+00 +0.0000000000e+00 +1.8661580358e+03 1.8703397591e+03 1.2500000000e+02 0.0000e+00 0.0000e+00
      -15  1    3    3    0    0 -5.8133299206e+00 +2.0289937826e+01 +1.8129011833e+03 1.8130249128e+03 1.7770000000e+00 0.0000e+00 -1.0000e+00
       15  1    3    3    0    0 +5.8027910123e+00 -2.0272670352e+01 +5.3219092074e+01 5.7272009193e+01 1.7770000000e+00 0.0000e+00 -1.0000e+00
       22  1    3    3    0    0 +1.0538908388e-02 -1.7267473724e-02 +3.7767030642e-02 4.2843702481e-02 0.0000000000e+00 0.0000e+00 1.0000e+00
<mgrwt>
<rscale>  2 0.12500000E+03</rscale>
<asrwt>0</asrwt>
<pdfrwt beam="1">  1       21 0.27474132E+00 0.12500000E+03</pdfrwt>
<pdfrwt beam="2">  1       21 0.30748096E-03 0.12500000E+03</pdfrwt>
<totfact> 0.64143270E+05</totfact>
</mgrwt>
</event>
<event>
 6      0 +4.1053447e-01 1.25000000e+02 7.54677100e-03 1.12640300e-01
       21 -1    0    0  502  501 +0.0000000000e+00 +0.0000000000e+00 +6.4287801943e+01 6.4287801943e+01 0.0000000000e+00 0.0000e+00 -1.0000e+00
       21 -1    0    0  501  502 -0.0000000000e+00 -0.0000000000e+00 -6.0761915666e+01 6.0761915666e+01 0.0000000000e+00 0.0000e+00 -1.0000e+00
       25  2    1    2    0    0 +0.0000000000e+00 +0.0000000000e+00 +3.5258862775e+00 1.2504971761e+02 1.2500000000e+02 0.0000e+00 0.0000e+00
      -15  1    3    3    0    0 -5.6681352000e+01 +2.6201272360e+01 +3.7156206829e+00 6.2579916138e+01 1.7770000000e+00 0.0000e+00 -1.0000e+00
       15  1    3    3    0    0 +5.6681352112e+01 -2.6201272382e+01 -1.8973446014e-01 6.2469801344e+01 1.7770000000e+00 0.0000e+00 -1.0000e+00
       22  1    3    3    0    0 -1.1279122881e-07 +2.2523240429e-08 +5.4710038177e-08 1.2736697348e-07 0.0000000000e+00 0.0000e+00 1.0000e+00
<mgrwt>
<rscale>  2 0.12500000E+03</rscale>
<asrwt>0</asrwt>
<pdfrwt beam="1">  1       21 0.94540886E-02 0.12500000E+03</pdfrwt>
<pdfrwt beam="2">  1       21 0.89355758E-02 0.12500000E+03</pdfrwt>
<totfact> 0.88991726E+06</totfact>
</mgrwt>
</event>
<event>
 6      0 +4.1053447e-01 1.25000000e+02 7.54677100e-03 1.12640300e-01
       21 -1    0    0  502  501 +0.0000000000e+00 +0.0000000000e+00 +1.7787102783e+01 1.7787102783e+01 0.0000000000e+00 0.0000e+00 1.0000e+00
       21 -1    0    0  501  502 -0.0000000000e+00 -0.0000000000e+00 -2.1961136941e+02 2.1961136941e+02 0.0000000000e+00 0.0000e+00 1.0000e+00
       25  2    1    2    0    0 +0.0000000000e+00 +0.0000000000e+00 -2.0182426663e+02 2.3739847219e+02 1.2500000000e+02 0.0000e+00 0.0000e+00
      -15  1    3    3    0    0 -4.2368498911e+01 -4.5809060725e+01 -1.0628073975e+02 1.2325710168e+02 1.7770000000e+00 0.0000e+00 1.0000e+00
       15  1    3    3    0    0 +4.2375561932e+01 +4.5818568813e+01 -9.5528773824e+01 1.1412245114e+02 1.7770000000e+00 0.0000e+00 1.0000e+00
       22  1    3    3    0    0 -7.0630211148e-03 -9.5080884576e-03 -1.4753076094e-02 1.8919388669e-02 0.0000000000e+00 0.0000e+00 1.0000e+00
<mgrwt>
<rscale>  2 0.12500000E+03</rscale>
<asrwt>0</asrwt>
<pdfrwt beam="1">  1       21 0.26157508E-02 0.12500000E+03</pdfrwt>
<pdfrwt beam="2">  1       21 0.32295785E-01 0.12500000E+03</pdfrwt>
<totfact> 0.71650750E+06</totfact>
</mgrwt>
</event>
<event>
 6      0 +4.1053447e-01 1.25000000e+02 7.54677100e-03 1.12640300e-01
       21 -1    0    0  502  501 +0.0000000000e+00 +0.0000000000e+00 +3.6190286398e+02 3.6190286398e+02 0.0000000000e+00 0.0000e+00 1.0000e+00
       21 -1    0    0  501  502 -0.0000000000e+00 -0.0000000000e+00 -1.0793642131e+01 1.0793642131e+01 0.0000000000e+00 0.0000e+00 1.0000e+00
       25  2    1    2    0    0 +0.0000000000e+00 +0.0000000000e+00 +3.5110922185e+02 3.7269650611e+02 1.2500000000e+02 0.0000e+00 0.0000e+00
      -15  1    3    3    0    0 -3.3785277776e+01 -1.2422535887e+00 +2.0528853267e+01 3.9592672729e+01 1.7770000000e+00 0.0000e+00 -1.0000e+00
       15  1    3    3    0    0 +3.3319015007e+01 -5.7168242727e+00 +2.8222791626e+02 2.8425093366e+02 1.7770000000e+00 0.0000e+00 -1.0000e+00
       22  1    3    3    0    0 +4.6626276870e-01 +6.9590778614e+00 +4.8352452335e+01 4.8852899734e+01 0.0000000000e+00 0.0000e+00 -1.0000e+00
<mgrwt>
<rscale>  2 0.12500000E+03</rscale>
<asrwt>0</asrwt>
<pdfrwt beam="1">  1       21 0.53221001E-01 0.12500000E+03</pdfrwt>
<pdfrwt beam="2">  1       21 0.15873005E-02 0.12500000E+03</pdfrwt>
<totfact> 0.56255265E+06</totfact>
</mgrwt>
</event>
<event>
 6      0 +4.1053447e-01 1.25000000e+02 7.54677100e-03 1.12640300e-01
       21 -1    0    0  502  501 +0.0000000000e+00 +0.0000000000e+00 +6.9701214966e+00 6.9701214966e+00 0.0000000000e+00 0.0000e+00 -1.0000e+00
       21 -1    0    0  501  502 -0.0000000000e+00 -0.0000000000e+00 -5.6042782065e+02 5.6042782065e+02 0.0000000000e+00 0.0000e+00 -1.0000e+00
       25  2    1    2    0    0 +0.0000000000e+00 +0.0000000000e+00 -5.5345769915e+02 5.6739794215e+02 1.2500000000e+02 0.0000e+00 0.0000e+00
      -15  1    3    3    0    0 +1.0362948658e+01 +3.0018139837e+01 -1.5175664205e+02 1.5505391178e+02 1.7770000000e+00 0.0000e+00 -1.0000e+00
       15  1    3    3    0    0 +9.8740374450e+00 +2.6569076650e+01 -1.9589742158e+02 1.9794537115e+02 1.7770000000e+00 0.0000e+00 -1.0000e+00
       22  1    3    3    0    0 -2.0236986103e+01 -5.6587216486e+01 -2.0580363538e+02 2.1439865908e+02 0.0000000000e+00 0.0000e+00 -1.0000e+00
<mgrwt>
<rscale>  2 0.12500000E+03</rscale>
<asrwt>0</asrwt>
<pdfrwt beam="1">  1       21 0.10250176E-02 0.12500000E+03</pdfrwt>
<pdfrwt beam="2">  1       21 0.82415878E-01 0.12500000E+03</pdfrwt>
<totfact> 0.40635604E+06</totfact>
</mgrwt>
</event>
<event>
 6      0 +4.1053447e-01 1.25000000e+02 7.54677100e-03 1.12640300e-01
       21 -1    0    0  502  501 +0.0000000000e+00 +0.0000000000e+00 +3.4638710538e+02 3.4638710538e+02 0.0000000000e+00 0.0000e+00 -1.0000e+00
       21 -1    0    0  501  502 -0.0000000000e+00 -0.0000000000e+00 -1.1277123020e+01 1.1277123020e+01 0.0000000000e+00 0.0000e+00 -1.0000e+00
       25  2    1    2    0    0 +0.0000000000e+00 +0.0000000000e+00 +3.3510998236e+02 3.5766422840e+02 1.2500000000e+02 0.0000e+00 0.0000e+00
      -15  1    3    3    0    0 -6.0853465429e+01 +1.4044482589e+01 +1.7225701349e+02 1.8323762761e+02 1.7770000000e+00 0.0000e+00 1.0000e+00
       15  1    3    3    0    0 +6.0853310803e+01 -1.4044429435e+01 +1.6285254403e+02 1.7442614557e+02 1.7770000000e+00 0.0000e+00 1.0000e+00
       22  1    3    3    0    0 +1.5462632951e-04 -5.3153858041e-05 +4.2484196073e-04 4.5522008524e-04 0.0000000000e+00 0.0000e+00 1.0000e+00
<mgrwt>
<rscale>  2 0.12500000E+03</rscale>
<asrwt>0</asrwt>
<pdfrwt beam="1">  1       21 0.50939273E-01 0.12500000E+03</pdfrwt>
<pdfrwt beam="2">  1       21 0.16584007E-02 0.12500000E+03</pdfrwt>
<totfact> 0.57749843E+06</totfact>
</mgrwt>
</event>
<event>
 6      0 +4.1053447e-01 1.25000000e+02 7.54677100e-03 1.12640300e-01
       21 -1    0    0  502  501 +0.0000000000e+00 +0.0000000000e+00 +1.1401644459e+02 1.1401644459e+02 0.0000000000e+00 0.0000e+00 1.0000e+00
       21 -1    0    0  501  502 -0.0000000000e+00 -0.0000000000e+00 -3.4260408787e+01 3.4260408787e+01 0.0000000000e+00 0.0000e+00 1.0000e+00
       25  2    1    2    0    0 +0.0000000000e+00 +0.0000000000e+00 +7.9756035799e+01 1.4827685337e+02 1.2500000000e+02 0.0000e+00 0.0000e+00
      -15  1    3    3    0    0 +4.7627746267e+01 +5.9911821703e+00 -7.5360297444e+00 4.8623512333e+01 1.7770000000e+00 0.0000e+00 -1.0000e+00
       15  1    3    3    0    0 -4.7638694505e+01 -5.9926060245e+00 +8.7292989984e+01 9.9642261970e+01 1.7770000000e+00 0.0000e+00 -1.0000e+00
       22  1    3    3    0    0 +1.0948237369e-02 +1.4238541515e-03 -9.2443809568e-04 1.1079072521e-02 0.0000000000e+00 0.0000e+00 1.0000e+00
<mgrwt>
<rscale>  2 0.12500000E+03</rscale>
<asrwt>0</asrwt>
<pdfrwt beam="1">  1       21 0.16767124E-01 0.12500000E+03</pdfrwt>
<pdfrwt beam="2">  1       21 0.50382954E-02 0.12500000E+03</pdfrwt>
<totfact> 0.84915596E+06</totfact>
</mgrwt>
</event>
<event>
 6      0 +4.1053447e-01 1.25000000e+02 7.54677100e-03 1.12640300e-01
       21 -1    0    0  502  501 +0.0000000000e+00 +0.0000000000e+00 +3.4757337934e+02 3.4757337934e+02 0.0000000000e+00 0.0000e+00 1.0000e+00
       21 -1    0    0  501  502 -0.0000000000e+00 -0.0000000000e+00 -1.1238634004e+01 1.1238634004e+01 0.0000000000e+00 0.0000e+00 1.0000e+00
       25  2    1    2    0    0 +0.0000000000e+00 +0.0000000000e+00 +3.3633474534e+02 3.5881201335e+02 1.2500000000e+02 0.0000e+00 0.0000e+00
      -15  1    3    3    0    0 -5.9631830267e+01 -7.3764065056e+00 +1.1905541076e+02 1.3337059314e+02 1.7770000000e+00 0.0000e+00 1.0000e+00
       15  1    3    3    0    0 +5.9631758552e+01 +7.3764040347e+00 +2.1727898160e+02 2.2544106001e+02 1.7770000000e+00 0.0000e+00 1.0000e+00
       22  1    3    3    0    0 +7.1714902685e-05 +2.4708774820e-06 +3.5296623929e-04 3.6018647751e-04 0.0000000000e+00 0.0000e+00 -1.0000e+00
<mgrwt>
<rscale>  2 0.12500000E+03</rscale>
<asrwt>0</asrwt>
<pdfrwt beam="1">  1       21 0.51113725E-01 0.12500000E+03</pdfrwt>
<pdfrwt beam="2">  1       21 0.16527405E-02 0.12500000E+03</pdfrwt>
<totfact> 0.57634179E+06</totfact>
</mgrwt>
</event>
<event>
 6      0 +4.1053447e-01 1.25000000e+02 7.54677100e-03 1.12640300e-01
       21 -1    0    0  502  501 +0.0000000000e+00 +0.0000000000e+00 +1.7850980398e+02 1.7850980398e+02 0.0000000000e+00 0.0000e+00 -1.0000e+00
       21 -1    0    0  501  502 -0.0000000000e+00 -0.0000000000e+00 -2.1882551618e+01 2.1882551618e+01 0.0000000000e+00 0.0000e+00 -1.0000e+00
       25  2    1    2    0    0 +0.0000000000e+00 +0.0000000000e+00 +1.5662725236e+02 2.0039235560e+02 1.2500000000e+02 0.0000e+00 0.0000e+00
      -15  1    3    3    0    0 +6.9287783509e+00 -3.8790390272e+01 +1.5603511111e+02 1.6094351796e+02 1.7770000000e+00 0.0000e+00 1.0000e+00
       15  1    3    3    0    0 -6.9287595470e+00 +3.8790270139e+01 +5.9212455582e-01 3.9448714893e+01 1.7770000000e+00 0.0000e+00 1.0000e+00
       22  1    3    3    0    0 -1.8803861908e-05 +1.2013354481e-04 +1.6690842596e-05 1.2273645766e-04 0.0000000000e+00 0.0000e+00 1.0000e+00
<mgrwt>
<rscale>  2 0.12500000E+03</rscale>
<asrwt>0</asrwt>
<pdfrwt beam="1">  1       21 0.26251441E-01 0.12500000E+03</pdfrwt>
<pdfrwt beam="2">  1       21 0.32180224E-02 0.12500000E+03</pdfrwt>
<totfact> 0.76761664E+06</totfact>
</mgrwt>
</event>
<event>
 6      0 +4.1053447e-01 1.25000000e+02 7.54677100e-03 1.12640300e-01
       21 -1    0    0  502  501 +0.0000000000e+00 +0.0000000000e+00 +5.5227439514e+01 5.5227439514e+01 0.0000000000e+00 0.0000e+00 -1.0000e+00
       21 -1    0    0  501  502 -0.0000000000e+00 -0.0000000000e+00 -7.0730239070e+01 7.0730239070e+01 0.0000000000e+00 0.0000e+00 -1.0000e+00
       25  2    1    2    0    0 +0.0000000000e+00 +0.0000000000e+00 -1.5502799556e+01 1.2595767858e+02 1.2500000000e+02 0.0000e+00 0.0000e+00
      -15  1    3    3    0    0 -5.6271317476e+01 +7.5162563781e+00 +1.6939656702e+01 5.9271114200e+01 1.7770000000e+00 0.0000e+00 1.0000e+00
       15  1    3    3    0    0 +5.6842170067e+01 -7.7023170148e+00 -3.2679110400e+01 6.6041199041e+01 1.7770000000e+00 0.0000e+00 1.0000e+00
       22  1    3    3    0    0 -5.7085259083e-01 +1.8606063676e-01 +2.3665414187e-01 6.4536534139e-01 0.0000000000e+00 0.0000e+00 1.0000e+00
<mgrwt>
<rscale>  2 0.12500000E+03</rscale>
<asrwt>0</asrwt>
<pdfrwt beam="1">  1       21 0.81216823E-02 0.12500000E+03</pdfrwt>
<pdfrwt beam="2">  1       21 0.10401506E-01 0.12500000E+03</pdfrwt>
<totfact> 0.88819426E+06</totfact>
</mgrwt>
</event>
<event>
 6      0 +4.1053447e-01 1.25000000e+02 7.54677100e-03 1.12640300e-01
       21 -1    0    0  502  501 +0.0000000000e+00 +0.0000000000e+00 +3.0397769579e+02 3.0397769579e+02 0.0000000000e+00 0.0000e+00 1.0000e+00
       21 -1    0    0  501  502 -0.0000000000e+00 -0.0000000000e+00 -1.2850449405e+01 1.2850449405e+01 0.0000000000e+00 0.0000e+00 1.0000e+00
       25  2    1    2    0    0 +0.0000000000e+00 +0.0000000000e+00 +2.9112724638e+02 3.1682814519e+02 1.2500000000e+02 0.0000e+00 0.0000e+00
      -15  1    3    3    0    0 -3.5105788159e+01 +1.6405844496e+01 +2.1353434433e+01 4.4279735625e+01 1.7770000000e+00 0.0000e+00 -1.0000e+00
       15  1    3    3    0    0 +3.5105788383e+01 -1.6405844648e+01 +2.6977381184e+02 2.7254840927e+02 1.7770000000e+00 0.0000e+00 -1.0000e+00
       22  1    3    3    0    0 -2.2344735339e-07 +1.5192533821e-07 +1.1477122047e-07 2.9356849485e-07 0.0000000000e+00 0.0000e+00 1.0000e+00
<mgrwt>
<rscale>  2 0.12500000E+03</rscale>
<asrwt>0</asrwt>
<pdfrwt beam="1">  1       21 0.44702598E-01 0.12500000E+03</pdfrwt>
<pdfrwt beam="2">  1       21 0.18897722E-02 0.12500000E+03</pdfrwt>
<totfact> 0.62055049E+06</totfact>
</mgrwt>
</event>
<event>
 6      0 +4.1053447e-01 1.25000000e+02 7.54677100e-03 1.12640300e-01
       21 -1    0    0  502  501 +0.0000000000e+00 +0.0000000000e+00 +1.5533896469e+02 1.5533896469e+02 0.0000000000e+00 0.0000e+00 1.0000e+00
       21 -1    0    0  501  502 -0.0000000000e+00 -0.0000000000e+00 -2.5146620538e+01 2.5146620538e+01 0.0000000000e+00 0.0000e+00 1.0000e+00
       25  2    1    2    0    0 +0.0000000000e+00 +0.0000000000e+00 +1.3019234416e+02 1.8048558523e+02 1.2500000000e+02 0.0000e+00 0.0000e+00
      -15  1    3    3    0    0 +2.4971407560e+00 +5.9647157802e+01 +9.1679184470e+01 1.0941777616e+02 1.7770000000e+00 0.0000e+00 -1.0000e+00
       15  1    3    3    0    0 -2.4731397051e+00 -5.8660427482e+01 +3.7823141107e+01 6.9863509106e+01 1.7770000000e+00 0.0000e+00 -1.0000e+00
       22  1    3    3    0    0 -2.4001050932e-02 -9.8673031981e-01 +6.9001859221e-01 1.2042999759e+00 0.0000000000e+00 0.0000e+00 -1.0000e+00
<mgrwt>
<rscale>  2 0.12500000E+03</rscale>
<asrwt>0</asrwt>
<pdfrwt beam="1">  1       21 0.22843965E-01 0.12500000E+03</pdfrwt>
<pdfrwt beam="2">  1       21 0.36980325E-02 0.12500000E+03</pdfrwt>
<totfact> 0.79732122E+06</totfact>
</mgrwt>
</event>
<event>
 6      0 +4.1053447e-01 1.25000000e+02 7.54677100e-03 1.12640300e-01
       21 -1    0    0  502  501 +0.0000000000e+00 +0.0000000000e+00 +3.9181597070e+02 3.9181597070e+02 0.0000000000e+00 0.0000e+00 1.0000e+00
       21 -1    0    0  501  502 -0.0000000000e+00 -0.0000000000e+00 -9.9696038246e+00 9.9696038246e+00 0.0000000000e+00 0.0000e+00 1.0000e+00
       25  2    1    2    0    0 +0.0000000000e+00 +0.0000000000e+00 +3.8184636687e+02 4.0178557452e+02 1.2500000000e+02 0.0000e+00 0.0000e+00
      -15  1    3    3    0    0 +5.9129810450e+01 +1.0996658361e+01 +1.3661944649e+02 1.4928259063e+02 1.7770000000e+00 0.0000e+00 1.0000e+00
       15  1    3    3    0    0 -5.9129801681e+01 -1.0988184823e+01 +2.4521062158e+02 2.5248461402e+02 1.7770000000e+00 0.0000e+00 1.0000e+00
       22  1    3    3    0    0 -8.7695466266e-06 -8.4735384698e-03 +1.6298793268e-02 1.8369855554e-02 0.0000000000e+00 0.0000e+00 -1.0000e+00
<mgrwt>
<rscale>  2 0.12500000E+03</rscale>
<asrwt>0</asrwt>
<pdfrwt beam="1">  1       21 0.57619985E-01 0.12500000E+03</pdfrwt>
<pdfrwt beam="2">  1       21 0.14661185E-02 0.12500000E+03</pdfrwt>
<totfact> 0.53491307E+06</totfact>
</mgrwt>
</event>
<event>
 6      0 +4.1053447e-01 1.25000000e+02 7.54677100e-03 1.12640300e-01
       21 -1    0    0  502  501 +0.0000000000e+00 +0.0000000000e+00 +1.4421807410e+03 1.4421807410e+03 0.0000000000e+00 0.0000e+00 1.0000e+00
       21 -1    0    0  501  502 -0.0000000000e+00 -0.0000000000e+00 -2.7085717406e+00 2.7085717406e+00 0.0000000000e+00 0.0000e+00 1.0000e+00
       25  2    1    2    0    0 +0.0000000000e+00 +0.0000000000e+00 +1.4394721693e+03 1.4448893128e+03 1.2500000000e+02 0.0000e+00 0.0000e+00
      -15  1    3    3    0    0 -2.1234542617e+01 +5.7683480733e+01 +8.4883112447e+02 8.5105565350e+02 1.7770000000e+00 0.0000e+00 -1.0000e+00
       15  1    3    3    0    0 +2.1234577276e+01 -5.7683866486e+01 +5.9063017167e+02 5.9382277924e+02 1.7770000000e+00 0.0000e+00 -1.0000e+00
       22  1    3    3    0    0 -3.4659323418e-05 +3.8575266019e-04 +1.0870655809e-02 1.0877553223e-02 0.0000000000e+00 0.0000e+00 -1.0000e+00
<mgrwt>
<rscale>  2 0.12500000E+03</rscale>
<asrwt>0</asrwt>
<pdfrwt beam="1">  1       21 0.21208487E+00 0.12500000E+03</pdfrwt>
<pdfrwt beam="2">  1       21 0.39832038E-03 0.12500000E+03</pdfrwt>
<totfact> 0.11445092E+06</totfact>
</mgrwt>
</event>
<event>
 6      0 +4.1053447e-01 1.25000000e+02 7.54677100e-03 1.12640300e-01
       21 -1    0    0  502  501 +0.0000000000e+00 +0.0000000000e+00 +1.8269088661e+01 1.8269088661e+01 0.0000000000e+00 0.0000e+00 1.0000e+00
       21 -1    0    0  501  502 -0.0000000000e+00 -0.0000000000e+00 -2.1381745266e+02 2.1381745266e+02 0.0000000000e+00 0.0000e+00 1.0000e+00
       25  2    1    2    0    0 +0.0000000000e+00 +0.0000000000e+00 -1.9554836400e+02 2.3208654133e+02 1.2500000000e+02 0.0000e+00 0.0000e+00
      -15  1    3    3    0    0 +4.9510877434e+01 +8.9797348572e+00 -1.4075541968e+02 1.4948982749e+02 1.7770000000e+00 0.0000e+00 1.0000e+00
       15  1    3    3    0    0 -3.1038459944e+01 +1.2449038374e+01 -3.0866712439e+01 4.5544222662e+01 1.7770000000e+00 0.0000e+00 1.0000e+00
       22  1    3    3    0    0 -1.8472417489e+01 -2.1428773231e+01 -2.3926231855e+01 3.7052491156e+01 0.0000000000e+00 0.0000e+00 1.0000e+00
<mgrwt>
<rscale>  2 0.12500000E+03</rscale>
<asrwt>0</asrwt>
<pdfrwt beam="1">  1       21 0.26866308E-02 0.12500000E+03</pdfrwt>
<pdfrwt beam="2">  1       21 0.31443742E-01 0.12500000E+03</pdfrwt>
<totfact> 0.72357945E+06</totfact>
</mgrwt>
</event>
<event>
 6      0 +4.1053447e-01 1.25000000e+02 7.54677100e-03 1.12640300e-01
       21 -1    0    0  502  501 +0.0000000000e+00 +0.0000000000e+00 +4.9035344294e+02 4.9035344294e+02 0.0000000000e+00 0.0000e+00 -1.0000e+00
       21 -1    0    0  501  502 -0.0000000000e+00 -0.0000000000e+00 -7.9661926641e+00 7.9661926641e+00 0.0000000000e+00 0.0000e+00 -1.0000e+00
       25  2    1    2    0    0 +0.0000000000e+00 +0.0000000000e+00 +4.8238725028e+02 4.9831963561e+02 1.2500000000e+02 0.0000e+00 0.0000e+00
      -15  1    3    3    0    0 +2.9681861616e+01 -4.6673147976e+01 +3.2610281787e+02 3.3076517532e+02 1.7770000000e+00 0.0000e+00 -1.0000e+00
       15  1    3    3    0    0 -3.1251430969e+01 +4.0893288314e+01 +1.1722011895e+02 1.2803369472e+02 1.7770000000e+00 0.0000e+00 -1.0000e+00
       22  1    3    3    0    0 +1.5695693528e+00 +5.7798596622e+00 +3.9064313429e+01 3.9520765546e+01 0.0000000000e+00 0.0000e+00 -1.0000e+00
<mgrwt>
<rscale>  2 0.12500000E+03</rscale>
<asrwt>0</asrwt>
<pdfrwt beam="1">  1       21 0.72110780E-01 0.12500000E+03</pdfrwt>
<pdfrwt beam="2">  1       21 0.11714993E-02 0.12500000E+03</pdfrwt>
<totfact> 0.45451186E+06</totfact>
</mgrwt>
</event>
<event>
 6      0 +4.1053447e-01 1.25000000e+02 7.54677100e-03 1.12640300e-01
       21 -1    0    0  502  501 +0.0000000000e+00 +0.0000000000e+00 +4.2188329520e+02 4.2188329520e+02 0.0000000000e+00 0.0000e+00 -1.0000e+00
       21 -1    0    0  501  502 -0.0000000000e+00 -0.0000000000e+00 -9.2590772008e+00 9.2590772008e+00 0.0000000000e+00 0.0000e+00 -1.0000e+00
       25  2    1    2    0    0 +0.0000000000e+00 +0.0000000000e+00 +4.1262421800e+02 4.3114237240e+02 1.2500000000e+02 0.0000e+00 0.0000e+00
      -15  1    3    3    0    0 -7.5335520717e+00 -1.2285807269e+01 -3.3602751755e+00 1.4904517612e+01 1.7770000000e+00 0.0000e+00 1.0000e+00
       15  1    3    3    0    0 +7.5335520798e+00 +1.2285807276e+01 +4.1598449312e+02 4.1623785473e+02 1.7770000000e+00 0.0000e+00 1.0000e+00
       22  1    3    3    0    0 -8.1169421112e-09 -6.5033324893e-09 +7.2340473734e-08 7.3084350054e-08 0.0000000000e+00 0.0000e+00 -1.0000e+00
<mgrwt>
<rscale>  2 0.12500000E+03</rscale>
<asrwt>0</asrwt>
<pdfrwt beam="1">  1       21 0.62041648E-01 0.12500000E+03</pdfrwt>
<pdfrwt beam="2">  1       21 0.13616293E-02 0.12500000E+03</pdfrwt>
<totfact> 0.50873739E+06</totfact>
</mgrwt>
</event>
<event>
 6      0 +4.1053447e-01 1.25000000e+02 7.54677100e-03 1.12640300e-01
       21 -1    0    0  502  501 +0.0000000000e+00 +0.0000000000e+00 +4.0810780868e+01 4.0810780868e+01 0.0000000000e+00 0.0000e+00 -1.0000e+00
       21 -1    0    0  501  502 -0.0000000000e+00 -0.0000000000e+00 -9.5716129828e+01 9.5716129828e+01 0.0000000000e+00 0.0000e+00 -1.0000e+00
       25  2    1    2    0    0 +0.0000000000e+00 +0.0000000000e+00 -5.4905348960e+01 1.3652691070e+02 1.2500000000e+02 0.0000e+00 0.0000e+00
      -15  1    3    3    0    0 +4.9231787977e+01 -2.1123987756e+01 -5.6787726601e+01 7.8089662745e+01 1.7770000000e+00 0.0000e+00 1.0000e+00
       15  1    3    3    0    0 -5.0924472635e+01 +2.1968826836e+01 +3.9559287603e+00 5.5630372703e+01 1.7770000000e+00 0.0000e+00 1.0000e+00
       22  1    3    3    0    0 +1.6926846584e+00 -8.4483908010e-01 -2.0735511166e+00 2.8068752479e+00 0.0000000000e+00 0.0000e+00 -1.0000e+00
<mgrwt>
<rscale>  2 0.12500000E+03</rscale>
<asrwt>0</asrwt>
<pdfrwt beam="1">  1       21 0.60015856E-02 0.12500000E+03</pdfrwt>
<pdfrwt beam="2">  1       21 0.14075901E-01 0.12500000E+03</pdfrwt>
<totfact> 0.86939976E+06</totfact>
</mgrwt>
</event>
<event>
 6      0 +4.1053447e-01 1.25000000e+02 7.54677100e-03 1.12640300e-01
       21 -1    0    0  502  501 +0.0000000000e+00 +0.0000000000e+00 +1.5319276861e+01 1.5319276861e+01 0.0000000000e+00 0.0000e+00 1.0000e+00
       21 -1    0    0  501  502 -0.0000000000e+00 -0.0000000000e+00 -2.5498919012e+02 2.5498919012e+02 0.0000000000e+00 0.0000e+00 1.0000e+00
       25  2    1    2    0    0 +0.0000000000e+00 +0.0000000000e+00 -2.3966991326e+02 2.7030846698e+02 1.2500000000e+02 0.0000e+00 0.0000e+00
      -15  1    3    3    0    0 +3.4447657053e+01 -2.8309733493e+01 -2.0142843864e+02 2.0631203481e+02 1.7770000000e+00 0.0000e+00 1.0000e+00
       15  1    3    3    0    0 -3.6047380078e+01 +2.9404587783e+01 -2.9660345209e+01 5.5199068833e+01 1.7770000000e+00 0.0000e+00 1.0000e+00
       22  1    3    3    0    0 +1.5997230248e+00 -1.0948542906e+00 -8.5811294178e+00 8.7973633413e+00 0.0000000000e+00 0.0000e+00 1.0000e+00
<mgrwt>
<rscale>  2 0.12500000E+03</rscale>
<asrwt>0</asrwt>
<pdfrwt beam="1">  1       21 0.22528349E-02 0.12500000E+03</pdfrwt>
<pdfrwt beam="2">  1       21 0.37498409E-01 0.12500000E+03</pdfrwt>
<totfact> 0.67460670E+06</totfact>
</mgrwt>
</event>
<event>
 6      0 +4.1053447e-01 1.25000000e+02 7.54677100e-03 1.12640300e-01
       21 -1    0    0  502  501 +0.0000000000e+00 +0.0000000000e+00 +2.8291936611e+02 2.8291936611e+02 0.0000000000e+00 0.0000e+00 -1.0000e+00
       21 -1    0    0  501  502 -0.0000000000e+00 -0.0000000000e+00 -1.3806937481e+01 1.3806937481e+01 0.0000000000e+00 0.0000e+00 -1.0000e+00
       25  2    1    2    0    0 +0.0000000000e+00 +0.0000000000e+00 +2.6911242863e+02 2.9672630359e+02 1.2500000000e+02 0.0000e+00 0.0000e+00
      -15  1    3    3    0    0 +4.7714261480e+01 +4.0207596343e+01 +1.4198388968e+02 1.5509959449e+02 1.7770000000e+00 0.0000e+00 -1.0000e+00
       15  1    3    3    0    0 -4.7714250735e+01 -4.0207590286e+01 +1.2712851092e+02 1.4162667848e+02 1.7770000000e+00 0.0000e+00 -1.0000e+00
       22  1    3    3    0    0 -1.0745107867e-05 -6.0569976774e-06 +2.8037892018e-05 3.0631159834e-05 0.0000000000e+00 0.0000e+00 -1.0000e+00
<mgrwt>
<rscale>  2 0.12500000E+03</rscale>
<asrwt>0</asrwt>
<pdfrwt beam="1">  1       21 0.41605785E-01 0.12500000E+03</pdfrwt>
<pdfrwt beam="2">  1       21 0.20304322E-02 0.12500000E+03</pdfrwt>
<totfact> 0.64327458E+06</totfact>
</mgrwt>
</event>
<event>
 6      0 +4.1053447e-01 1.25000000e+02 7.54677100e-03 1.12640300e-01
       21 -1    0    0  502  501 +0.0000000000e+00 +0.0000000000e+00 +2.0821506563e+01 2.0821506563e+01 0.0000000000e+00 0.0000e+00 1.0000e+00
       21 -1    0    0  501  502 -0.0000000000e+00 -0.0000000000e+00 -1.8760650139e+02 1.8760650139e+02 0.0000000000e+00 0.0000e+00 1.0000e+00
       25  2    1    2    0    0 +0.0000000000e+00 +0.0000000000e+00 -1.6678499483e+02 2.0842800795e+02 1.2500000000e+02 0.0000e+00 0.0000e+00
      -15  1    3    3    0    0 +3.8328520428e+01 +8.8210916265e+00 -2.4719881423e+00 3.9448137980e+01 1.7770000000e+00 0.0000e+00 1.0000e+00
       15  1    3    3    0    0 -3.8359309376e+01 -8.7942443632e+00 -1.6405373872e+02 1.6871740357e+02 1.7770000000e+00 0.0000e+00 1.0000e+00
       22  1    3    3    0    0 +3.0788947652e-02 -2.6847263329e-02 -2.5926797635e-01 2.6246641386e-01 0.0000000000e+00 0.0000e+00 -1.0000e+00
<mgrwt>
<rscale>  2 0.12500000E+03</rscale>
<asrwt>0</asrwt>
<pdfrwt beam="1">  1       21 0.30619863E-02 0.12500000E+03</pdfrwt>
<pdfrwt beam="2">  1       21 0.27589191E-01 0.12500000E+03</pdfrwt>
<totfact> 0.75606736E+06</totfact>
</mgrwt>
</event>
<event>
 6      0 +4.1053447e-01 1.25000000e+02 7.54677100e-03 1.12640300e-01
       21 -1    0    0  502  501 +0.0000000000e+00 +0.0000000000e+00 +2.7255093079e+02 2.7255093079e+02 0.0000000000e+00 0.0000e+00 -1.0000e+00
       21 -1    0    0  501  502 -0.0000000000e+00 -0.0000000000e+00 -1.4332183672e+01 1.4332183672e+01 0.0000000000e+00 0.0000e+00 -1.0000e+00
       25  2    1    2    0    0 +0.0000000000e+00 +0.0000000000e+00 +2.5821874712e+02 2.8688311446e+02 1.2500000000e+02 0.0000e+00 0.0000e+00
      -15  1    3    3    0    0 -5.2313633676e+01 -9.9757702358e+00 +2.0407229001e+02 2.1091441283e+02 1.7770000000e+00 0.0000e+00 -1.0000e+00
       15  1    3    3    0    0 +5.2313681704e+01 +9.9757930101e+00 +5.4146268670e+01 7.5968505840e+01 1.7770000000e+00 0.0000e+00 -1.0000e+00
       22  1    3    3    0    0 -4.8028326598e-05 -2.2774295277e-05 +1.8845720236e-04 1.9580987157e-04 0.0000000000e+00 0.0000e+00 -1.0000e+00
<mgrwt>
<rscale>  2 0.12500000E+03</rscale>
<asrwt>0</asrwt>
<pdfrwt beam="1">  1       21 0.40081016E-01 0.12500000E+03</pdfrwt>
<pdfrwt beam="2">  1       21 0.21076742E-02 0.12500000E+03</pdfrwt>
<totfact> 0.65475665E+06</totfact>
</mgrwt>
</event>
<event>
 6      0 +4.1053447e-01 1.25000000e+02 7.54677100e-03 1.12640300e-01
       21 -1    0    0  502  501 +0.0000000000e+00 +0.0000000000e+00 +1.0513079416e+03 1.0513079416e+03 0.0000000000e+00 0.0000e+00 -1.0000e+00
       21 -1    0    0  501  502 -0.0000000000e+00 -0.0000000000e+00 -3.7156097139e+00 3.7156097139e+00 0.0000000000e+00 0.0000e+00 -1.0000e+00
       25  2    1    2    0    0 +0.0000000000e+00 +0.0000000000e+00 +1.0475923318e+03 1.0550235513e+03 1.2500000000e+02 0.0000e+00 0.0000e+00
      -15  1    3    3    0    0 +4.1534077941e+01 -4.6475711893e+01 +5.5962536339e+02 5.6308860449e+02 1.7770000000e+00 0.0000e+00 -1.0000e+00
       15  1    3    3    0    0 -4.1534078716e+01 +4.6475713340e+01 +4.8796694948e+02 4.9193492775e+02 1.7770000000e+00 0.0000e+00 -1.0000e+00
       22  1    3    3    0    0 +7.7453615573e-07 -1.4472690854e-06 +1.3843559168e-05 1.3940538889e-05 0.0000000000e+00 0.0000e+00 -1.0000e+00
<mgrwt>
<rscale>  2 0.12500000E+03</rscale>
<asrwt>0</asrwt>
<pdfrwt beam="1">  1       21 0.15460390E+00 0.12500000E+03</pdfrwt>
<pdfrwt beam="2">  1       21 0.54641392E-03 0.12500000E+03</pdfrwt>
<totfact> 0.19600697E+06</totfact>
</mgrwt>
</event>
<event>
 6      0 +4.1053447e-01 1.25000000e+02 7.54677100e-03 1.12640300e-01
       21 -1    0    0  502  501 +0.0000000000e+00 +0.0000000000e+00 +4.3009999684e+00 4.3009999684e+00 0.0000000000e+00 0.0000e+00 -1.0000e+00
       21 -1    0    0  501  502 -0.0000000000e+00 -0.0000000000e+00 -9.0821902551e+02 9.0821902551e+02 0.0000000000e+00 0.0000e+00 -1.0000e+00
       25  2    1    2    0    0 +0.0000000000e+00 +0.0000000000e+00 -9.0391802554e+02 9.1252002548e+02 1.2500000000e+02 0.0000e+00 0.0000e+00
      -15  1    3    3    0    0 +3.0050742602e+01 -4.1277552736e+01 -1.8913207786e+02 1.9591065335e+02 1.7770000000e+00 0.0000e+00 1.0000e+00
       15  1    3    3    0    0 -3.0050742612e+01 +4.1277552732e+01 -7.1478594747e+02 7.1660937192e+02 1.7770000000e+00 0.0000e+00 1.0000e+00
       22  1    3    3    0    0 +1.0225096252e-08 +4.4322056376e-09 -3.3519794819e-08 3.5323840178e-08 0.0000000000e+00 0.0000e+00 1.0000e+00
<mgrwt>
<rscale>  2 0.12500000E+03</rscale>
<asrwt>0</asrwt>
<pdfrwt beam="1">  1       21 0.63249992E-03 0.12500000E+03</pdfrwt>
<pdfrwt beam="2">  1       21 0.13356164E+00 0.12500000E+03</pdfrwt>
<totfact> 0.23994240E+06</totfact>
</mgrwt>
</event>
<event>
 6      0 +4.1053447e-01 1.25000000e+02 7.54677100e-03 1.12640300e-01
       21 -1    0    0  502  501 +0.0000000000e+00 +0.0000000000e+00 +8.2984837293e+00 8.2984837293e+00 0.0000000000e+00 0.0000e+00 1.0000e+00
       21 -1    0    0  501  502 -0.0000000000e+00 -0.0000000000e+00 -4.7071852249e+02 4.7071852249e+02 0.0000000000e+00 0.0000e+00 1.0000e+00
       25  2    1    2    0    0 +0.0000000000e+00 +0.0000000000e+00 -4.6242003877e+02 4.7901700622e+02 1.2500000000e+02 0.0000e+00 0.0000e+00
      -15  1    3    3    0    0 -2.5948188168e+01 +1.2863360842e+01 -1.9081494296e+01 3.4728024345e+01 1.7770000000e+00 0.0000e+00 -1.0000e+00
       15  1    3    3    0    0 +2.5941467823e+01 -1.2818023576e+01 -4.4201758122e+02 4.4296722375e+02 1.7770000000e+00 0.0000e+00 -1.0000e+00
       22  1    3    3    0    0 +6.7203454916e-03 -4.5337266241e-02 -1.3209633793e+00 1.3217582534e+00 0.0000000000e+00 0.0000e+00 1.0000e+00
<mgrwt>
<rscale>  2 0.12500000E+03</rscale>
<asrwt>0</asrwt>
<pdfrwt beam="1">  1       21 0.12203652E-02 0.12500000E+03</pdfrwt>
<pdfrwt beam="2">  1       21 0.69223315E-01 0.12500000E+03</pdfrwt>
<totfact> 0.46929070E+06</totfact>
</mgrwt>
</event>
<event>
 6      0 +4.1053447e-01 1.25000000e+02 7.54677100e-03 1.12640300e-01
       21 -1    0    0  502  501 +0.0000000000e+00 +0.0000000000e+00 +5.4394215649e+02 5.4394215649e+02 0.0000000000e+00 0.0000e+00 -1.0000e+00
       21 -1    0    0  501  502 -0.0000000000e+00 -0.0000000000e+00 -7.1813702126e+00 7.1813702126e+00 0.0000000000e+00 0.0000e+00 -1.0000e+00
       25  2    1    2    0    0 +0.0000000000e+00 +0.0000000000e+00 +5.3676078628e+02 5.5112352670e+02 1.2500000000e+02 0.0000e+00 0.0000e+00
      -15  1    3    3    0    0 +5.6334866798e+01 -6.4931153671e+00 +3.8393662279e+02 3.8810599817e+02 1.7770000000e+00 0.0000e+00 1.0000e+00
       15  1    3    3    0    0 -5.6336888846e+01 +6.4939816102e+00 +1.5281181701e+02 1.6300498762e+02 1.7770000000e+00 0.0000e+00 1.0000e+00
       22  1    3    3    0    0 +2.0220471926e-03 -8.6624306217e-04 +1.2346586243e-02 1.2541022436e-02 0.0000000000e+00 0.0000e+00 1.0000e+00
<mgrwt>
<rscale>  2 0.12500000E+03</rscale>
<asrwt>0</asrwt>
<pdfrwt beam="1">  1       21 0.79991466E-01 0.12500000E+03</pdfrwt>
<pdfrwt beam="2">  1       21 0.10560842E-02 0.12500000E+03</pdfrwt>
<totfact> 0.41719029E+06</totfact>
</mgrwt>
</event>
<event>
 6      0 +4.1053447e-01 1.25000000e+02 7.54677100e-03 1.12640300e-01
       21 -1    0    0  502  501 +0.0000000000e+00 +0.0000000000e+00 +9.9559145622e+01 9.9559145622e+01 0.0000000000e+00 0.0000e+00 -1.0000e+00
       21 -1    0    0  501  502 -0.0000000000e+00 -0.0000000000e+00 -3.9235471293e+01 3.9235471293e+01 0.0000000000e+00 0.0000e+00 -1.0000e+00
       25  2    1    2    0    0 +0.0000000000e+00 +0.0000000000e+00 +6.0323674329e+01 1.3879461691e+02 1.2500000000e+02 0.0000e+00 0.0000e+00
      -15  1    3    3    0    0 -4.8205018320e+01 -3.4201401883e+01 +5.2511203001e+01 7.9082512931e+01 1.7770000000e+00 0.0000e+00 1.0000e+00
       15  1    3    3    0    0 +4.8223055843e+01 +3.4216136661e+01 +7.7698290523e+00 5.9663515613e+01 1.7770000000e+00 0.0000e+00 1.0000e+00
       22  1    3    3    0    0 -1.8037522484e-02 -1.4734778385e-02 +4.2642278359e-02 4.8588371192e-02 0.0000000000e+00 0.0000e+00 -1.0000e+00
<mgrwt>
<rscale>  2 0.12500000E+03</rscale>
<asrwt>0</asrwt>
<pdfrwt beam="1">  1       21 0.14641051E-01 0.12500000E+03</pdfrwt>
<pdfrwt beam="2">  1       21 0.57699223E-02 0.12500000E+03</pdfrwt>
<totfact> 0.86548430E+06</totfact>
</mgrwt>
</event>
<event>
 6      0 +4.1053447e-01 1.25000000e+02 7.54677100e-03 1.12640300e-01
       21 -1    0    0  502  501 +0.0000000000e+00 +0.0000000000e+00 +5.7213136395e+02 5.7213136395e+02 0.0000000000e+00 0.0000e+00 -1.0000e+00
       21 -1    0    0  501  502 -0.0000000000e+00 -0.0000000000e+00 -6.8275403975e+00 6.8275403975e+00 0.0000000000e+00 0.0000e+00 -1.0000e+00
       25  2    1    2    0    0 +0.0000000000e+00 +0.0000000000e+00 +5.6530382355e+02 5.7895890434e+02 1.2500000000e+02 0.0000e+00 0.0000e+00
      -15  1    3    3    0    0 +2.7454453609e+01 -1.3694921034e+01 +3.0585385902e+01 4.3358060898e+01 1.7770000000e+00 0.0000e+00 1.0000e+00
       15  1    3    3    0    0 -2.7454453756e+01 +1.3694919443e+01 +5.3471843403e+02 5.3560083950e+02 1.7770000000e+00 0.0000e+00 1.0000e+00
       22  1    3    3    0    0 +1.4732773917e-07 +1.5917873387e-06 +3.7133072218e-06 4.0427890024e-06 0.0000000000e+00 0.0000e+00 1.0000e+00
<mgrwt>
<rscale>  2 0.12500000E+03</rscale>
<asrwt>0</asrwt>
<pdfrwt beam="1">  1       21 0.84136933E-01 0.12500000E+03</pdfrwt>
<pdfrwt beam="2">  1       21 0.10040504E-02 0.12500000E+03</pdfrwt>
<totfact> 0.39879322E+06</totfact>
</mgrwt>
</event>
<event>
 6      0 +4.1053447e-01 1.25000000e+02 7.54677100e-03 1.12640300e-01
       21 -1    0    0  502  501 +0.0000000000e+00 +0.0000000000e+00 +9.9311564671e+00 9.9311564671e+00 0.0000000000e+00 0.0000e+00 -1.0000e+00
       21 -1    0    0  501  502 -0.0000000000e+00 -0.0000000000e+00 -3.9333284225e+02 3.9333284225e+02 0.0000000000e+00 0.0000e+00 -1.0000e+00
       25  2    1    2    0    0 +0.0000000000e+00 +0.0000000000e+00 -3.8340168578e+02 4.0326399871e+02 1.2500000000e+02 0.0000e+00 0.0000e+00
      -15  1    3    3    0    0 +4.0787036483e+01 -1.4289275695e+01 -3.3724555585e+02 3.4000807110e+02 1.7770000000e+00 0.0000e+00 1.0000e+00
       15  1    3    3    0    0 -4.0787013817e+01 +1.4289285615e+01 -4.6156103109e+01 6.3255891131e+01 1.7770000000e+00 0.0000e+00 1.0000e+00
       22  1    3    3    0    0 -2.2665847563e-05 -9.9199247578e-06 -2.6862837758e-05 3.6520646289e-05 0.0000000000e+00 0.0000e+00 1.0000e+00
<mgrwt>
<rscale>  2 0.12500000E+03</rscale>
<asrwt>0</asrwt>
<pdfrwt beam="1">  1       21 0.14604640E-02 0.12500000E+03</pdfrwt>
<pdfrwt beam="2">  1       21 0.57843071E-01 0.12500000E+03</pdfrwt>
<totfact> 0.53355484E+06</totfact>
</mgrwt>
</event>
<event>
 6      0 +4.1053447e-01 1.25000000e+02 7.54677100e-03 1.12640300e-01
       21 -1    0    0  502  501 +0.0000000000e+00 +0.0000000000e+00 +1.3259276704e+02 1.3259276704e+02 0.0000000000e+00 0.0000e+00 -1.0000e+00
       21 -1    0    0  501  502 -0.0000000000e+00 -0.0000000000e+00 -2.9460505932e+01 2.9460505932e+01 0.0000000000e+00 0.0000e+00 -1.0000e+00
       25  2    1    2    0    0 +0.0000000000e+00 +0.0000000000e+00 +1.0313226111e+02 1.6205327297e+02 1.2500000000e+02 0.0000e+00 0.0000e+00
      -15  1    3    3    0    0 +1.1734303520e+00 +1.7954797831e+01 +3.9469638086e+01 4.3413842995e+01 1.7770000000e+00 0.0000e+00 -1.0000e+00
       15  1    3    3    0    0 -1.9068330910e+01 -4.6703698014e+01 +4.7666324925e+00 5.0702220525e+01 1.7770000000e+00 0.0000e+00 -1.0000e+00
       22  1    3    3    0    0 +1.7894900558e+01 +2.8748900183e+01 +5.8895990534e+01 6.7937209457e+01 0.0000000000e+00 0.0000e+00 -1.0000e+00
<mgrwt>
<rscale>  2 0.12500000E+03</rscale>
<asrwt>0</asrwt>
<pdfrwt beam="1">  1       21 0.19498936E-01 0.12500000E+03</pdfrwt>
<pdfrwt beam="2">  1       21 0.43324274E-02 0.12500000E+03</pdfrwt>
<totfact> 0.82644632E+06</totfact>
</mgrwt>
</event>
<event>
 6      0 +4.1053447e-01 1.25000000e+02 7.54677100e-03 1.12640300e-01
       21 -1    0    0  502  501 +0.0000000000e+00 +0.0000000000e+00 +7.8924681852e+00 7.8924681852e+00 0.0000000000e+00 0.0000e+00 1.0000e+00
       21 -1    0    0  501  502 -0.0000000000e+00 -0.0000000000e+00 -4.9493389246e+02 4.9493389246e+02 0.0000000000e+00 0.0000e+00 1.0000e+00
       25  2    1    2    0    0 +0.0000000000e+00 +0.0000000000e+00 -4.8704142427e+02 5.0282636064e+02 1.2500000000e+02 0.0000e+00 0.0000e+00
      -15  1    3    3    0    0 -5.8497076864e+00 -6.0662817144e+01 -2.9880675751e+02 3.0496365771e+02 1.7770000000e+00 0.0000e+00 1.0000e+00
       15  1    3    3    0    0 +5.8497080033e+00 +6.0662837946e+01 -1.8823457193e+02 1.9786260584e+02 1.7770000000e+00 0.0000e+00 1.0000e+00
       22  1    3    3    0    0 -3.1690222906e-07 -2.0801969009e-05 -9.4839707223e-05 9.7094759940e-05 0.0000000000e+00 0.0000e+00 1.0000e+00
<mgrwt>
<rscale>  2 0.12500000E+03</rscale>
<asrwt>0</asrwt>
<pdfrwt beam="1">  1       21 0.11606568E-02 0.12500000E+03</pdfrwt>
<pdfrwt beam="2">  1       21 0.72784411E-01 0.12500000E+03</pdfrwt>
<totfact> 0.45116314E+06</totfact>
</mgrwt>
</event>
<event>
 6      0 +4.1053447e-01 1.25000000e+02 7.54677100e-03 1.12640300e-01
       21 -1    0    0  502  501 +0.0000000000e+00 +0.0000000000e+00 +5.2886533901e+01 5.2886533901e+01 0.0000000000e+00 0.0000e+00 1.0000e+00
       21 -1    0    0  501  502 -0.0000000000e+00 -0.0000000000e+00 -7.3860956880e+01 7.3860956880e+01 0.0000000000e+00 0.0000e+00 1.0000e+00
       25  2    1    2    0    0 +0.0000000000e+00 +0.0000000000e+00 -2.0974422980e+01 1.2674749078e+02 1.2500000000e+02 0.0000e+00 0.0000e+00
      -15  1    3    3    0    0 -5.2123585393e+01 +3.0044723877e+01 +5.6809056869e+00 6.0456463720e+01 1.7770000000e+00 0.0000e+00 1.0000e+00
       15  1    3    3    0    0 +4.2134598900e+01 -2.5571425267e+01 -2.4751987219e+01 5.5181888468e+01 1.7770000000e+00 0.0000e+00 1.0000e+00
       22  1    3    3    0    0 +9.9889864934e+00 -4.4732986098e+00 -1.9033414483e+00 1.1109138594e+01 0.0000000000e+00 0.0000e+00 1.0000e+00
<mgrwt>
<rscale>  2 0.12500000E+03</rscale>
<asrwt>0</asrwt>
<pdfrwt beam="1">  1       21 0.77774316E-02 0.12500000E+03</pdfrwt>
<pdfrwt beam="2">  1       21 0.10861905E-01 0.12500000E+03</pdfrwt>
<totfact> 0.88678116E+06</totfact>
</mgrwt>
</event>
<event>
 6      0 +4.1053447e-01 1.25000000e+02 7.54677100e-03 1.12640300e-01
       21 -1    0    0  502  501 +0.0000000000e+00 +0.0000000000e+00 +2.9006983775e+01 2.9006983775e+01 0.0000000000e+00 0.0000e+00 1.0000e+00
       21 -1    0    0  501  502 -0.0000000000e+00 -0.0000000000e+00 -1.3466584566e+02 1.3466584566e+02 0.0000000000e+00 0.0000e+00 1.0000e+00
       25  2    1    2    0    0 +0.0000000000e+00 +0.0000000000e+00 -1.0565886188e+02 1.6367282943e+02 1.2500000000e+02 0.0000e+00 0.0000e+00
      -15  1    3    3    0    0 +4.9454968959e+01 -2.3495223754e+01 -9.2224136300e+01 1.0726727618e+02 1.7770000000e+00 0.0000e+00 1.0000e+00
       15  1    3    3    0    0 -4.9447328052e+01 +2.3492617147e+01 -1.3436791460e+01 5.6397219839e+01 1.7770000000e+00 0.0000e+00 1.0000e+00
       22  1    3    3    0    0 -7.6409079477e-03 +2.6066072350e-03 +2.0658792499e-03 8.3334106234e-03 0.0000000000e+00 0.0000e+00 -1.0000e+00
<mgrwt>
<rscale>  2 0.12500000E+03</rscale>
<asrwt>0</asrwt>
<pdfrwt beam="1">  1       21 0.42657329E-02 0.12500000E+03</pdfrwt>
<pdfrwt beam="2">  1       21 0.19803801E-01 0.12500000E+03</pdfrwt>
<totfact> 0.82381556E+06</totfact>
</mgrwt>
</event>
<event>
 6      0 +4.1053447e-01 1.25000000e+02 7.54677100e-03 1.12640300e-01
       21 -1    0    0  502  501 +0.0000000000e+00 +0.0000000000e+00 +7.2914586679e+00 7.2914586679e+00 0.0000000000e+00 0.0000e+00 -1.0000e+00
       21 -1    0    0  501  502 -0.0000000000e+00 -0.0000000000e+00 -5.3572956769e+02 5.3572956769e+02 0.0000000000e+00 0.0000e+00 -1.0000e+00
       25  2    1    2    0    0 +0.0000000000e+00 +0.0000000000e+00 -5.2843810902e+02 5.4302102636e+02 1.2500000000e+02 0.0000e+00 0.0000e+00
      -15  1    3    3    0    0 -4.6984765478e+01 -8.3635852975e+00 -4.3936900454e+02 4.4195678253e+02 1.7770000000e+00 0.0000e+00 1.0000e+00
       15  1    3    3    0    0 +4.6984703388e+01 +8.3635692608e+00 -8.9069031299e+01 1.0106414651e+02 1.7770000000e+00 0.0000e+00 1.0000e+00
       22  1    3    3    0    0 +6.2089555107e-05 +1.6036658632e-05 -7.3104446988e-05 9.7244781063e-05 0.0000000000e+00 0.0000e+00 -1.0000e+00
<mgrwt>
<rscale>  2 0.12500000E+03</rscale>
<asrwt>0</asrwt>
<pdfrwt beam="1">  1       21 0.10722736E-02 0.12500000E+03</pdfrwt>
<pdfrwt beam="2">  1       21 0.78783742E-01 0.12500000E+03</pdfrwt>
<totfact> 0.42268180E+06</totfact>
</mgrwt>
</event>
<event>
 6      0 +4.1053447e-01 1.25000000e+02 7.54677100e-03 1.12640300e-01
       21 -1    0    0  502  501 +0.0000000000e+00 +0.0000000000e+00 +3.7081121904e+01 3.7081121904e+01 0.0000000000e+00 0.0000e+00 -1.0000e+00
       21 -1    0    0  501  502 -0.0000000000e+00 -0.0000000000e+00 -1.0534336070e+02 1.0534336070e+02 0.0000000000e+00 0.0000e+00 -1.0000e+00
       25  2    1    2    0    0 +0.0000000000e+00 +0.0000000000e+00 -6.8262238799e+01 1.4242448261e+02 1.2500000000e+02 0.0000e+00 0.0000e+00
      -15  1    3    3    0    0 -3.7365497603e+01 -4.5486667498e+01 -5.7757811676e+01 8.2488422641e+01 1.7770000000e+00 0.0000e+00 1.0000e+00
       15  1    3    3    0    0 +3.2255331060e+01 +3.8261395800e+01 -7.7748890329e+00 5.0674919031e+01 1.7770000000e+00 0.0000e+00 1.0000e+00
       22  1    3    3    0    0 +5.1101665431e+00 +7.2252716984e+00 -2.7295380882e+00 9.2611409334e+00 0.0000000000e+00 0.0000e+00 1.0000e+00
<mgrwt>
<rscale>  2 0.12500000E+03</rscale>
<asrwt>0</asrwt>
<pdfrwt beam="1">  1       21 0.54531062E-02 0.12500000E+03</pdfrwt>
<pdfrwt beam="2">  1       21 0.15491670E-01 0.12500000E+03</pdfrwt>
<totfact> 0.85920170E+06</totfact>
</mgrwt>
</event>
<event>
 6      0 +4.1053447e-01 1.25000000e+02 7.54677100e-03 1.12640300e-01
       21 -1    0    0  502  501 +0.0000000000e+00 +0.0000000000e+00 +4.8781621013e+01 4.8781621013e+01 0.0000000000e+00 0.0000e+00 -1.0000e+00
       21 -1    0    0  501  502 -0.0000000000e+00 -0.0000000000e+00 -8.0076264767e+01 8.0076264767e+01 0.0000000000e+00 0.0000e+00 -1.0000e+00
       25  2    1    2    0    0 +0.0000000000e+00 +0.0000000000e+00 -3.1294643754e+01 1.2885788578e+02 1.2500000000e+02 0.0000e+00 0.0000e+00
      -15  1    3    3    0    0 +2.5501101566e+00 +2.5013331306e+01 -7.4604237880e+01 7.8747189432e+01 1.7770000000e+00 0.0000e+00 1.0000e+00
       15  1    3    3    0    0 -2.5501128740e+00 -2.5013406414e+01 +4.3309743175e+01 5.0110529422e+01 1.7770000000e+00 0.0000e+00 1.0000e+00
       22  1    3    3    0    0 +2.7173469512e-06 +7.5108386943e-05 -1.4904881570e-04 1.6692574166e-04 0.0000000000e+00 0.0000e+00 1.0000e+00
<mgrwt>
<rscale>  2 0.12500000E+03</rscale>
<asrwt>0</asrwt>
<pdfrwt beam="1">  1       21 0.71737678E-02 0.12500000E+03</pdfrwt>
<pdfrwt beam="2">  1       21 0.11775921E-01 0.12500000E+03</pdfrwt>
<totfact> 0.88304881E+06</totfact>
</mgrwt>
</event>
<event>
 6      0 +4.1053447e-01 1.25000000e+02 7.54677100e-03 1.12640300e-01
       21 -1    0    0  502  501 +0.0000000000e+00 +0.0000000000e+00 +2.0059801956e+01 2.0059801956e+01 0.0000000000e+00 0.0000e+00 -1.0000e+00
       21 -1    0    0  501  502 -0.0000000000e+00 -0.0000000000e+00 -1.9473023755e+02 1.9473023755e+02 0.0000000000e+00 0.0000e+00 -1.0000e+00
       25  2    1    2    0    0 +0.0000000000e+00 +0.0000000000e+00 -1.7467043559e+02 2.1479003950e+02 1.2500000000e+02 0.0000e+00 0.0000e+00
      -15  1    3    3    0    0 -3.9716319627e+01 +3.8951399254e+01 -1.3619400902e+02 1.4712771109e+02 1.7770000000e+00 0.0000e+00 -1.0000e+00
       15  1    3    3    0    0 +3.9716319647e+01 -3.8951399266e+01 -3.8476426502e+01 6.7662328340e+01 1.7770000000e+00 0.0000e+00 -1.0000e+00
       22  1    3    3    0    0 -1.9883934422e-08 +1.1338650850e-08 -6.8669385178e-08 7.2383840130e-08 0.0000000000e+00 0.0000e+00 -1.0000e+00
<mgrwt>
<rscale>  2 0.12500000E+03</rscale>
<asrwt>0</asrwt>
<pdfrwt beam="1">  1       21 0.29499710E-02 0.12500000E+03</pdfrwt>
<pdfrwt beam="2">  1       21 0.28636799E-01 0.12500000E+03</pdfrwt>
<totfact> 0.74713053E+06</totfact>
</mgrwt>
</event>
<event>
 6      0 +4.1053447e-01 1.25000000e+02 7.54677100e-03 1.12640300e-01
       21 -1    0    0  502  501 +0.0000000000e+00 +0.0000000000e+00 +1.1518176816e+02 1.1518176816e+02 0.0000000000e+00 0.0000e+00 1.0000e+00
       21 -1    0    0  501  502 -0.0000000000e+00 -0.0000000000e+00 -3.3913787420e+01 3.3913787420e+01 0.0000000000e+00 0.0000e+00 1.0000e+00
       25  2    1    2    0    0 +0.0000000000e+00 +0.0000000000e+00 +8.1267980741e+01 1.4909555558e+02 1.2500000000e+02 0.0000e+00 0.0000e+00
      -15  1    3    3    0    0 +1.7817802366e+01 -8.8205758838e+00 +1.1127762859e+02 1.1305372614e+02 1.7770000000e+00 0.0000e+00 -1.0000e+00
       15  1    3    3    0    0 -1.7817802703e+01 +8.8205761053e+00 -3.0009648712e+01 3.6041828489e+01 1.7770000000e+00 0.0000e+00 -1.0000e+00
       22  1    3    3    0    0 +3.3665475052e-07 -2.2151685464e-07 +8.5961859221e-07 9.4939468189e-07 0.0000000000e+00 0.0000e+00 -1.0000e+00
<mgrwt>
<rscale>  2 0.12500000E+03</rscale>
<asrwt>0</asrwt>
<pdfrwt beam="1">  1       21 0.16938495E-01 0.12500000E+03</pdfrwt>
<pdfrwt beam="2">  1       21 0.49873217E-02 0.12500000E+03</pdfrwt>
<totfact> 0.84777444E+06</totfact>
</mgrwt>
</event>
<event>
 6      0 +4.1053447e-01 1.25000000e+02 7.54677100e-03 1.12640300e-01
       21 -1    0    0  502  501 +0.0000000000e+00 +0.0000000000e+00 +2.4503371864e+01 2.4503371864e+01 0.0000000000e+00 0.0000e+00 1.0000e+00
       21 -1    0    0  501  502 -0.0000000000e+00 -0.0000000000e+00 -1.5941683543e+02 1.5941683543e+02 0.0000000000e+00 0.0000e+00 1.0000e+00
       25  2    1    2    0    0 +0.0000000000e+00 +0.0000000000e+00 -1.3491346357e+02 1.8392020730e+02 1.2500000000e+02 0.0000e+00 0.0000e+00
      -15  1    3    3    0    0 -1.4023590361e+01 +3.4956335166e+01 +5.8083462257e+00 3.8151029733e+01 1.7770000000e+00 0.0000e+00 1.0000e+00
       15  1    3    3    0    0 +1.3573020725e+01 -3.2322221727e+01 -1.2558361377e+02 1.3039691210e+02 1.7770000000e+00 0.0000e+00 1.0000e+00
       22  1    3    3    0    0 +4.5056963581e-01 -2.6341134389e+00 -1.5138196022e+01 1.5372265461e+01 0.0000000000e+00 0.0000e+00 -1.0000e+00
<mgrwt>
<rscale>  2 0.12500000E+03</rscale>
<asrwt>0</asrwt>
<pdfrwt beam="1">  1       21 0.36034370E-02 0.12500000E+03</pdfrwt>
<pdfrwt beam="2">  1       21 0.23443653E-01 0.12500000E+03</pdfrwt>
<totfact> 0.79210087E+06</totfact>
</mgrwt>
</event>
<event>
 6      0 +4.1053447e-01 1.25000000e+02 7.54677100e-03 1.12640300e-01
       21 -1    0    0  502  501 +0.0000000000e+00 +0.0000000000e+00 +4.7862862491e+01 4.7862862491e+01 0.0000000000e+00 0.0000e+00 1.0000e+00
       21 -1    0    0  501  502 -0.0000000000e+00 -0.0000000000e+00 -8.1613380327e+01 8.1613380327e+01 0.0000000000e+00 0.0000e+00 1.0000e+00
       25  2    1    2    0    0 +0.0000000000e+00 +0.0000000000e+00 -3.3750517837e+01 1.2947624282e+02 1.2500000000e+02 0.0000e+00 0.0000e+00
      -15  1    3    3    0    0 +7.9472881149e+00 +6.0156542686e+01 -3.2277973946e+01 6.8753140636e+01 1.7770000000e+00 0.0000e+00 -1.0000e+00
       15  1    3    3    0    0 -7.9472881200e+00 -6.0156542642e+01 -1.4725437901e+00 6.0723102072e+01 1.7770000000e+00 0.0000e+00 -1.0000e+00
       22  1    3    3    0    0 +5.0907490869e-09 -4.3577020616e-08 -9.9850903445e-08 1.0906454681e-07 0.0000000000e+00 0.0000e+00 -1.0000e+00
<mgrwt>
<rscale>  2 0.12500000E+03</rscale>
<asrwt>0</asrwt>
<pdfrwt beam="1">  1       21 0.70386563E-02 0.12500000E+03</pdfrwt>
<pdfrwt beam="2">  1       21 0.12001968E-01 0.12500000E+03</pdfrwt>
<totfact> 0.88193262E+06</totfact>
</mgrwt>
</event>
<event>
 6      0 +4.1053447e-01 1.25000000e+02 7.54677100e-03 1.12640300e-01
       21 -1    0    0  502  501 +0.0000000000e+00 +0.0000000000e+00 +2.5271048146e+02 2.5271048146e+02 0.0000000000e+00 0.0000e+00 -1.0000e+00
       21 -1    0    0  501  502 -0.0000000000e+00 -0.0000000000e+00 -1.5457411886e+01 1.5457411886e+01 0.0000000000e+00 0.0000e+00 -1.0000e+00
       25  2    1    2    0    0 +0.0000000000e+00 +0.0000000000e+00 +2.3725306958e+02 2.6816789335e+02 1.2500000000e+02 0.0000e+00 0.0000e+00
      -15  1    3    3    0    0 +2.9282603408e+01 +3.2477495256e+00 +4.3635972103e-01 2.9518924069e+01 1.7770000000e+00 0.0000e+00 1.0000e+00
       15  1    3    3    0    0 -2.9282603417e+01 -3.2477495286e+00 +2.3681670986e+02 2.3864896928e+02 1.7770000000e+00 0.0000e+00 1.0000e+00
       22  1    3    3    0    0 +9.2178043289e-09 +2.9790948124e-09 +6.8015020245e-09 1.1836526193e-08 0.0000000000e+00 0.0000e+00 1.0000e+00
<mgrwt>
<rscale>  2 0.12500000E+03</rscale>
<asrwt>0</asrwt>
<pdfrwt beam="1">  1       21 0.37163303E-01 0.12500000E+03</pdfrwt>
<pdfrwt beam="2">  1       21 0.22731490E-02 0.12500000E+03</pdfrwt>
<totfact> 0.67722559E+06</totfact>
</mgrwt>
</event>
<event>
 6      0 +4.1053447e-01 1.25000000e+02 7.54677100e-03 1.12640300e-01
       21 -1    0    0  502  501 +0.0000000000e+00 +0.0000000000e+00 +2.8584571421e+01 2.8584571421e+01 0.0000000000e+00 0.0000e+00 -1.0000e+00
       21 -1    0    0  501  502 -0.0000000000e+00 -0.0000000000e+00 -1.3665588833e+02 1.3665588833e+02 0.0000000000e+00 0.0000e+00 -1.0000e+00
       25  2    1    2    0    0 +0.0000000000e+00 +0.0000000000e+00 -1.0807131691e+02 1.6524045975e+02 1.2500000000e+02 0.0000e+00 0.0000e+00
      -15  1    3    3    0    0 -2.8664664619e+01 -5.4942968461e+01 -6.3821215637e+01 8.8975828602e+01 1.7770000000e+00 0.0000e+00 1.0000e+00
       15  1    3    3    0    0 +2.8193963718e+01 +5.4706210514e+01 -4.3692188756e+01 7.5497245951e+01 1.7770000000e+00 0.0000e+00 1.0000e+00
       22  1    3    3    0    0 +4.7070090160e-01 +2.3675794718e-01 -5.5791251810e-01 7.6738519804e-01 0.0000000000e+00 0.0000e+00 -1.0000e+00
<mgrwt>
<rscale>  2 0.12500000E+03</rscale>
<asrwt>0</asrwt>
<pdfrwt beam="1">  1       21 0.42036135E-02 0.12500000E+03</pdfrwt>
<pdfrwt beam="2">  1       21 0.20096454E-01 0.12500000E+03</pdfrwt>
<totfact> 0.82127266E+06</totfact>
</mgrwt>
</event>
<event>
 6      0 +4.1053447e-01 1.25000000e+02 7.54677100e-03 1.12640300e-01
       21 -1    0    0  502  501 +0.0000000000e+00 +0.0000000000e+00 +6.6166199449e+01 6.6166199449e+01 0.0000000000e+00 0.0000e+00 1.0000e+00
       21 -1    0    0  501  502 -0.0000000000e+00 -0.0000000000e+00 -5.9036940803e+01 5.9036940803e+01 0.0000000000e+00 0.0000e+00 1.0000e+00
       25  2    1    2    0    0 +0.0000000000e+00 +0.0000000000e+00 +7.1292586463e+00 1.2520314025e+02 1.2500000000e+02 0.0000e+00 0.0000e+00
      -15  1    3    3    0    0 -5.8460922899e+01 +1.9392290135e+01 +1.4038763574e+01 6.3197982836e+01 1.7770000000e+00 0.0000e+00 -1.0000e+00
       15  1    3    3    0    0 +5.8460922949e+01 -1.9392288888e+01 -6.9095040257e+00 6.2005155876e+01 1.7770000000e+00 0.0000e+00 -1.0000e+00
       22  1    3    3    0    0 -4.9910468275e-08 -1.2467989258e-06 -9.0186990603e-07 1.5395999297e-06 0.0000000000e+00 0.0000e+00 -1.0000e+00
<mgrwt>
<rscale>  2 0.12500000E+03</rscale>
<asrwt>0</asrwt>
<pdfrwt beam="1">  1       21 0.97303234E-02 0.12500000E+03</pdfrwt>
<pdfrwt beam="2">  1       21 0.86819031E-02 0.12500000E+03</pdfrwt>
<totfact> 0.88960168E+06</totfact>
</mgrwt>
</event>
<event>
 6      0 +4.1053447e-01 1.25000000e+02 7.54677100e-03 1.12640300e-01
       21 -1    0    0  502  501 +0.0000000000e+00 +0.0000000000e+00 +3.1782825944e+02 3.1782825944e+02 0.0000000000e+00 0.0000e+00 1.0000e+00
       21 -1    0    0  501  502 -0.0000000000e+00 -0.0000000000e+00 -1.2290442665e+01 1.2290442665e+01 0.0000000000e+00 0.0000e+00 1.0000e+00
       25  2    1    2    0    0 +0.0000000000e+00 +0.0000000000e+00 +3.0553781678e+02 3.3011870211e+02 1.2500000000e+02 0.0000e+00 0.0000e+00
      -15  1    3    3    0    0 +4.3044382063e+01 +2.6363692343e+01 +5.5546488400e+01 7.5076182667e+01 1.7770000000e+00 0.0000e+00 1.0000e+00
       15  1    3    3    0    0 -4.3044381206e+01 -2.6363700252e+01 +2.4999131555e+02 2.5504250435e+02 1.7770000000e+00 0.0000e+00 1.0000e+00
       22  1    3    3    0    0 -8.5764669125e-07 +7.9083001123e-06 +1.2830437270e-05 1.5096254140e-05 0.0000000000e+00 0.0000e+00 -1.0000e+00
<mgrwt>
<rscale>  2 0.12500000E+03</rscale>
<asrwt>0</asrwt>
<pdfrwt beam="1">  1       21 0.46739445E-01 0.12500000E+03</pdfrwt>
<pdfrwt beam="2">  1       21 0.18074182E-02 0.12500000E+03</pdfrwt>
<totfact> 0.60610557E+06</totfact>
</mgrwt>
</event>
<event>
 6      0 +4.1053447e-01 1.25000000e+02 7.54677100e-03 1.12640300e-01
       21 -1    0    0  502  501 +0.0000000000e+00 +0.0000000000e+00 +5.1047728368e+01 5.1047728368e+01 0.0000000000e+00 0.0000e+00 -1.0000e+00
       21 -1    0    0  501  502 -0.0000000000e+00 -0.0000000000e+00 -7.6521524559e+01 7.6521524559e+01 0.0000000000e+00 0.0000e+00 -1.0000e+00
       25  2    1    2    0    0 +0.0000000000e+00 +0.0000000000e+00 -2.5473796191e+01 1.2756925293e+02 1.2500000000e+02 0.0000e+00 0.0000e+00
      -15  1    3    3    0    0 +2.4905566229e+01 +5.0914047420e+01 +1.4081445285e+01 5.8429207458e+01 1.7770000000e+00 0.0000e+00 -1.0000e+00
       15  1    3    3    0    0 -2.4905263885e+01 -5.0914178304e+01 -3.9555238304e+01 6.9139715995e+01 1.7770000000e+00 0.0000e+00 -1.0000e+00
       22  1    3    3    0    0 -3.0234417131e-04 +1.3088450130e-04 -3.1709371844e-06 3.2947352770e-04 0.0000000000e+00 0.0000e+00 1.0000e+00
<mgrwt>
<rscale>  2 0.12500000E+03</rscale>
<asrwt>0</asrwt>
<pdfrwt beam="1">  1       21 0.75070189E-02 0.12500000E+03</pdfrwt>
<pdfrwt beam="2">  1       21 0.11253165E-01 0.12500000E+03</pdfrwt>
<totfact> 0.88533306E+06</totfact>
</mgrwt>
</event>
<event>
 6      0 +4.1053447e-01 1.25000000e+02 7.54677100e-03 1.12640300e-01
       21 -1    0    0  502  501 +0.0000000000e+00 +0.0000000000e+00 +3.7399148147e+01 3.7399148147e+01 0.0000000000e+00 0.0000e+00 1.0000e+00
       21 -1    0    0  501  502 -0.0000000000e+00 -0.0000000000e+00 -1.0444756615e+02 1.0444756615e+02 0.0000000000e+00 0.0000e+00 1.0000e+00
       25  2    1    2    0    0 +0.0000000000e+00 +0.0000000000e+00 -6.7048418002e+01 1.4184671430e+02 1.2500000000e+02 0.0000e+00 0.0000e+00
      -15  1    3    3    0    0 +2.0954881153e+01 -4.2218944595e+00 -1.0013997690e+02 1.0241144535e+02 1.7770000000e+00 0.0000e+00 -1.0000e+00
       15  1    3    3    0    0 -2.0954881153e+01 +4.2218944601e+00 +3.3091558900e+01 3.9435268941e+01 1.7770000000e+00 0.0000e+00 -1.0000e+00
       22  1    3    3    0    0 -1.1214870398e-10 -6.2507982097e-10 -1.8543515655e-09 1.9600821010e-09 0.0000000000e+00 0.0000e+00 -1.0000e+00
<mgrwt>
<rscale>  2 0.12500000E+03</rscale>
<asrwt>0</asrwt>
<pdfrwt beam="1">  1       21 0.54998748E-02 0.12500000E+03</pdfrwt>
<pdfrwt beam="2">  1       21 0.15359936E-01 0.12500000E+03</pdfrwt>
<totfact> 0.86020454E+06</totfact>
</mgrwt>
</event>
<event>
 6      0 +4.1053447e-01 1.25000000e+02 7.54677100e-03 1.12640300e-01
       21 -1    0    0  502  501 +0.0000000000e+00 +0.0000000000e+00 +1.2837783502e+03 1.2837783502e+03 0.0000000000e+00 0.0000e+00 -1.0000e+00
       21 -1    0    0  501  502 -0.0000000000e+00 -0.0000000000e+00 -3.0427760363e+00 3.0427760363e+00 0.0000000000e+00 0.0000e+00 -1.0000e+00
       25  2    1    2    0    0 +0.0000000000e+00 +0.0000000000e+00 +1.2807355742e+03 1.2868211263e+03 1.2500000000e+02 0.0000e+00 0.0000e+00
      -15  1    3    3    0    0 +2.4325583752e+01 +1.5097932870e+01 +1.2120094198e+03 1.2123488248e+03 1.7770000000e+00 0.0000e+00 -1.0000e+00
       15  1    3    3    0    0 -2.4325583799e+01 -1.5097932885e+01 +6.8726149611e+01 7.4472296688e+01 1.7770000000e+00 0.0000e+00 -1.0000e+00
       22  1    3    3    0    0 +4.6758788556e-08 +1.4823246007e-08 +1.9325300046e-06 1.9331524336e-06 0.0000000000e+00 0.0000e+00 1.0000e+00
<mgrwt>
<rscale>  2 0.12500000E+03</rscale>
<asrwt>0</asrwt>
<pdfrwt beam="1">  1       21 0.18879056E+00 0.12500000E+03</pdfrwt>
<pdfrwt beam="2">  1       21 0.44746796E-03 0.12500000E+03</pdfrwt>
<totfact> 0.14218520E+06</totfact>
</mgrwt>
</event>
<event>
 6      0 +4.1053447e-01 1.25000000e+02 7.54677100e-03 1.12640300e-01
       21 -1    0    0  502  501 +0.0000000000e+00 +0.0000000000e+00 +1.2264972814e+03 1.2264972814e+03 0.0000000000e+00 0.0000e+00 -1.0000e+00
       21 -1    0    0  501  502 -0.0000000000e+00 -0.0000000000e+00 -3.1848827219e+00 3.1848827219e+00 0.0000000000e+00 0.0000e+00 -1.0000e+00
       25  2    1    2    0    0 +0.0000000000e+00 +0.0000000000e+00 +1.2233123987e+03 1.2296821641e+03 1.2500000000e+02 0.0000e+00 0.0000e+00
      -15  1    3    3    0    0 -3.8475125888e+01 -2.4163335888e+00 +1.2802565020e+02 1.3371573886e+02 1.7770000000e+00 0.0000e+00 1.0000e+00
       15  1    3    3    0    0 +3.8471404554e+01 +2.4169667551e+00 +1.0951961695e+03 1.0958757676e+03 1.7770000000e+00 0.0000e+00 1.0000e+00
       22  1    3    3    0    0 +3.7213333944e-03 -6.3316629847e-04 +9.0583210438e-02 9.0661828986e-02 0.0000000000e+00 0.0000e+00 1.0000e+00
<mgrwt>
<rscale>  2 0.12500000E+03</rscale>
<asrwt>0</asrwt>
<pdfrwt beam="1">  1       21 0.18036692E+00 0.12500000E+03</pdfrwt>
<pdfrwt beam="2">  1       21 0.46836596E-03 0.12500000E+03</pdfrwt>
<totfact> 0.15382752E+06</totfact>
</mgrwt>
</event>
<event>
 6      0 +4.1053447e-01 1.25000000e+02 7.54677100e-03 1.12640300e-01
       21 -1    0    0  502  501 +0.0000000000e+00 +0.0000000000e+00 +6.8793965134e+01 6.8793965134e+01 0.0000000000e+00 0.0000e+00 -1.0000e+00
       21 -1    0    0  501  502 -0.0000000000e+00 -0.0000000000e+00 -5.6781870218e+01 5.6781870218e+01 0.0000000000e+00 0.0000e+00 -1.0000e+00
       25  2    1    2    0    0 +0.0000000000e+00 +0.0000000000e+00 +1.2012094917e+01 1.2557583535e+02 1.2500000000e+02 0.0000e+00 0.0000e+00
      -15  1    3    3    0    0 +1.1328371704e+01 -1.8721681808e+01 -5.2780173211e+01 5.7164130260e+01 1.7770000000e+00 0.0000e+00 -1.0000e+00
       15  1    3    3    0    0 -1.1328975335e+01 +1.8721519148e+01 +6.4792519102e+01 6.8411031434e+01 1.7770000000e+00 0.0000e+00 -1.0000e+00
       22  1    3    3    0    0 +6.0363068214e-04 +1.6265948624e-04 -2.5097337801e-04 6.7365847828e-04 0.0000000000e+00 0.0000e+00 -1.0000e+00
<mgrwt>
<rscale>  2 0.12500000E+03</rscale>
<asrwt>0</asrwt>
<pdfrwt beam="1">  1       21 0.10116760E-01 0.12500000E+03</pdfrwt>
<pdfrwt beam="2">  1       21 0.83502750E-02 0.12500000E+03</pdfrwt>
<totfact> 0.88889323E+06</totfact>
</mgrwt>
</event>
<event>
 6      0 +4.1053447e-01 1.25000000e+02 7.54677100e-03 1.12640300e-01
       21 -1    0    0  502  501 +0.0000000000e+00 +0.0000000000e+00 +4.9147643598e+01 4.9147643598e+01 0.0000000000e+00 0.0000e+00 1.0000e+00
       21 -1    0    0  501  502 -0.0000000000e+00 -0.0000000000e+00 -7.9479904101e+01 7.9479904101e+01 0.0000000000e+00 0.0000e+00 1.0000e+00
       25  2    1    2    0    0 +0.0000000000e+00 +0.0000000000e+00 -3.0332260503e+01 1.2862754770e+02 1.2500000000e+02 0.0000e+00 0.0000e+00
      -15  1    3    3    0    0 +2.1783956867e+01 +5.5397962532e+01 +3.6850443965e+00 5.9667514702e+01 1.7770000000e+00 0.0000e+00 -1.0000e+00
       15  1    3    3    0    0 -2.1603686108e+01 -5.5622780755e+01 -3.3871371256e+01 6.8637019983e+01 1.7770000000e+00 0.0000e+00 -1.0000e+00
       22  1    3    3    0    0 -1.8027075893e-01 +2.2481822219e-01 -1.4593364382e-01 3.2301301514e-01 0.0000000000e+00 0.0000e+00 -1.0000e+00
<mgrwt>
<rscale>  2 0.12500000E+03</rscale>
<asrwt>0</asrwt>
<pdfrwt beam="1">  1       21 0.72275947E-02 0.12500000E+03</pdfrwt>
<pdfrwt beam="2">  1       21 0.11688221E-01 0.12500000E+03</pdfrwt>
<totfact> 0.88346170E+06</totfact>
</mgrwt>
</event>
<event>
 6      0 +4.1053447e-01 1.25000000e+02 7.54677100e-03 1.12640300e-01
       21 -1    0    0  502  501 +0.0000000000e+00 +0.0000000000e+00 +7.3859481969e+01 7.3859481969e+01 0.0000000000e+00 0.0000e+00 1.0000e+00
       21 -1    0    0  501  502 -0.0000000000e+00 -0.0000000000e+00 -5.2887590000e+01 5.2887590000e+01 0.0000000000e+00 0.0000e+00 1.0000e+00
       25  2    1    2    0    0 +0.0000000000e+00 +0.0000000000e+00 +2.0971891969e+01 1.2674707197e+02 1.2500000000e+02 0.0000e+00 0.0000e+00
      -15  1    3    3    0    0 -6.1427048116e+01 -1.0119406391e+01 +5.1775447168e+00 6.2495194409e+01 1.7770000000e+00 0.0000e+00 -1.0000e+00
       15  1    3    3    0    0 +6.1427038113e+01 +1.0119405301e+01 +1.5794345827e+01 6.4251867397e+01 1.7770000000e+00 0.0000e+00 -1.0000e+00
       22  1    3    3    0    0 +1.0003246374e-05 +1.0892516624e-06 +1.4247201905e-06 1.0162737566e-05 0.0000000000e+00 0.0000e+00 1.0000e+00
<mgrwt>
<rscale>  2 0.12500000E+03</rscale>
<asrwt>0</asrwt>
<pdfrwt beam="1">  1       21 0.10861689E-01 0.12500000E+03</pdfrwt>
<pdfrwt beam="2">  1       21 0.77775868E-02 0.12500000E+03</pdfrwt>
<totfact> 0.88678191E+06</totfact>
</mgrwt>
</event>
<event>
 6      0 +4.1053447e-01 1.25000000e+02 7.54677100e-03 1.12640300e-01
       21 -1    0    0  502  501 +0.0000000000e+00 +0.0000000000e+00 +2.4819898824e+02 2.4819898824e+02 0.0000000000e+00 0.0000e+00 -1.0000e+00
       21 -1    0    0  501  502 -0.0000000000e+00 -0.0000000000e+00 -1.5738380030e+01 1.5738380030e+01 0.0000000000e+00 0.0000e+00 -1.0000e+00
       25  2    1    2    0    0 +0.0000000000e+00 +0.0000000000e+00 +2.3246060821e+02 2.6393736827e+02 1.2500000000e+02 0.0000e+00 0.0000e+00
      -15  1    3    3    0    0 +3.0026617369e+01 +2.5718181318e+01 +2.1837244785e+02 2.2192950753e+02 1.7770000000e+00 0.0000e+00 1.0000e+00
       15  1    3    3    0    0 -3.0026624299e+01 -2.5718186366e+01 +1.4088105918e+01 4.2007805633e+01 1.7770000000e+00 0.0000e+00 1.0000e+00
       22  1    3    3    0    0 +6.9304390592e-06 +5.0474472348e-06 +5.4438250285e-05 5.5109262409e-05 0.0000000000e+00 0.0000e+00 1.0000e+00
<mgrwt>
<rscale>  2 0.12500000E+03</rscale>
<asrwt>0</asrwt>
<pdfrwt beam="1">  1       21 0.36499849E-01 0.12500000E+03</pdfrwt>
<pdfrwt beam="2">  1       21 0.23144678E-02 0.12500000E+03</pdfrwt>
<totfact> 0.68244194E+06</totfact>
</mgrwt>
</event>
<event>
 6      0 +4.1053447e-01 1.25000000e+02 7.54677100e-03 1.12640300e-01
       21 -1    0    0  502  501 +0.0000000000e+00 +0.0000000000e+00 +2.8857768597e+02 2.8857768597e+02 0.0000000000e+00 0.0000e+00 1.0000e+00
       21 -1    0    0  501  502 -0.0000000000e+00 -0.0000000000e+00 -1.3536216381e+01 1.3536216381e+01 0.0000000000e+00 0.0000e+00 1.0000e+00
       25  2    1    2    0    0 +0.0000000000e+00 +0.0000000000e+00 +2.7504146959e+02 3.0211390235e+02 1.2500000000e+02 0.0000e+00 0.0000e+00
      -15  1    3    3    0    0 -2.6664800747e+01 -4.0184677979e+01 +2.1928894396e+02 2.2453645276e+02 1.7770000000e+00 0.0000e+00 1.0000e+00
       15  1    3    3    0    0 +2.7038313145e+01 +3.8726635222e+01 +4.0478163802e+01 6.2229109966e+01 1.7770000000e+00 0.0000e+00 1.0000e+00
       22  1    3    3    0    0 -3.7351239784e-01 +1.4580427564e+00 +1.5274361832e+01 1.5348339635e+01 0.0000000000e+00 0.0000e+00 -1.0000e+00
<mgrwt>
<rscale>  2 0.12500000E+03</rscale>
<asrwt>0</asrwt>
<pdfrwt beam="1">  1       21 0.42437891E-01 0.12500000E+03</pdfrwt>
<pdfrwt beam="2">  1       21 0.19906202E-02 0.12500000E+03</pdfrwt>
<totfact> 0.63707827E+06</totfact>
</mgrwt>
</event>
<event>
 6      0 +4.1053447e-01 1.25000000e+02 7.54677100e-03 1.12640300e-01
       21 -1    0    0  502  501 +0.0000000000e+00 +0.0000000000e+00 +7.7821590293e+00 7.7821590293e+00 0.0000000000e+00 0.0000e+00 1.0000e+00
       21 -1    0    0  501  502 -0.0000000000e+00 -0.0000000000e+00 -5.0194939288e+02 5.0194939288e+02 0.0000000000e+00 0.0000e+00 1.0000e+00
       25  2    1    2    0    0 +0.0000000000e+00 +0.0000000000e+00 -4.9416723385e+02 5.0973155191e+02 1.2500000000e+02 0.0000e+00 0.0000e+00
      -15  1    3    3    0    0 +6.0226420874e+01 +9.0495420068e+00 -1.9028917625e+02 1.9980551621e+02 1.7770000000e+00 0.0000e+00 1.0000e+00
       15  1    3    3    0    0 -6.0226420875e+01 -9.0495419979e+00 -3.0387805752e+02 3.0992603562e+02 1.7770000000e+00 0.0000e+00 1.0000e+00
       22  1    3    3    0    0 +1.7733325854e-09 -8.8886978293e-09 -5.8022452774e-08 5.8726132884e-08 0.0000000000e+00 0.0000e+00 -1.0000e+00
<mgrwt>
<rscale>  2 0.12500000E+03</rscale>
<asrwt>0</asrwt>
<pdfrwt beam="1">  1       21 0.11444356E-02 0.12500000E+03</pdfrwt>
<pdfrwt beam="2">  1       21 0.73816061E-01 0.12500000E+03</pdfrwt>
<totfact> 0.44610041E+06</totfact>
</mgrwt>
</event>
<event>
 6      0 +4.1053447e-01 1.25000000e+02 7.54677100e-03 1.12640300e-01
       21 -1    0    0  502  501 +0.0000000000e+00 +0.0000000000e+00 +1.1859470650e+01 1.1859470650e+01 0.0000000000e+00 0.0000e+00 1.0000e+00
       21 -1    0    0  501  502 -0.0000000000e+00 -0.0000000000e+00 -3.2937810763e+02 3.2937810763e+02 0.0000000000e+00 0.0000e+00 1.0000e+00
       25  2    1    2    0    0 +0.0000000000e+00 +0.0000000000e+00 -3.1751863698e+02 3.4123757828e+02 1.2500000000e+02 0.0000e+00 0.0000e+00
      -15  1    3    3    0    0 -6.1586711833e+01 -6.3023057961e+00 -1.8167262469e+02 1.9193942384e+02 1.7770000000e+00 0.0000e+00 -1.0000e+00
       15  1    3    3    0    0 +6.1586711834e+01 +6.3023057901e+00 -1.3584601220e+02 1.4929815435e+02 1.7770000000e+00 0.0000e+00 -1.0000e+00
       22  1    3    3    0    0 -1.3131852933e-09 +5.9327236591e-09 -8.2517341830e-08 8.2740760018e-08 0.0000000000e+00 0.0000e+00 -1.0000e+00
<mgrwt>
<rscale>  2 0.12500000E+03</rscale>
<asrwt>0</asrwt>
<pdfrwt beam="1">  1       21 0.17440395E-02 0.12500000E+03</pdfrwt>
<pdfrwt beam="2">  1       21 0.48437965E-01 0.12500000E+03</pdfrwt>
<totfact> 0.59435149E+06</totfact>
</mgrwt>
</event>
<event>
 6      0 +4.1053447e-01 1.25000000e+02 7.54677100e-03 1.12640300e-01
       21 -1    0    0  502  501 +0.0000000000e+00 +0.0000000000e+00 +4.5587559845e+01 4.5587559845e+01 0.0000000000e+00 0.0000e+00 -1.0000e+00
       21 -1    0    0  501  502 -0.0000000000e+00 -0.0000000000e+00 -8.5686753433e+01 8.5686753433e+01 0.0000000000e+00 0.0000e+00 -1.0000e+00
       25  2    1    2    0    0 +0.0000000000e+00 +0.0000000000e+00 -4.0099193588e+01 1.3127431328e+02 1.2500000000e+02 0.0000e+00 0.0000e+00
      -15  1    3    3    0    0 +4.9097268105e+01 +1.4113917451e+01 +1.7718701400e+01 5.4100411361e+01 1.7770000000e+00 0.0000e+00 1.0000e+00
       15  1    3    3    0    0 -4.9097267171e+01 -1.4113917137e+01 -5.7817894718e+01 7.7173900895e+01 1.7770000000e+00 0.0000e+00 1.0000e+00
       22  1    3    3    0    0 -9.3373409128e-07 -3.1384329306e-07 -2.6891006788e-07 1.0211119382e-06 0.0000000000e+00 0.0000e+00 -1.0000e+00
<mgrwt>
<rscale>  2 0.12500000E+03</rscale>
<asrwt>0</asrwt>
<pdfrwt beam="1">  1       21 0.67040530E-02 0.12500000E+03</pdfrwt>
<pdfrwt beam="2">  1       21 0.12600993E-01 0.12500000E+03</pdfrwt>
<totfact> 0.87866554E+06</totfact>
</mgrwt>
</event>
<event>
 6      0 +4.1053447e-01 1.25000000e+02 7.54677100e-03 1.12640300e-01
       21 -1    0    0  502  501 +0.0000000000e+00 +0.0000000000e+00 +1.2538075557e+01 1.2538075557e+01 0.0000000000e+00 0.0000e+00 -1.0000e+00
       21 -1    0    0  501  502 -0.0000000000e+00 -0.0000000000e+00 -3.1155100177e+02 3.1155100177e+02 0.0000000000e+00 0.0000e+00 -1.0000e+00
       25  2    1    2    0    0 +0.0000000000e+00 +0.0000000000e+00 -2.9901292621e+02 3.2408907733e+02 1.2500000000e+02 0.0000e+00 0.0000e+00
      -15  1    3    3    0    0 -4.3008014278e+00 +5.3968713248e+01 -6.8674790821e+01 8.7467156841e+01 1.7770000000e+00 0.0000e+00 -1.0000e+00
       15  1    3    3    0    0 +4.3008014914e+00 -5.3968702918e+01 -2.3033808798e+02 2.3662187196e+02 1.7770000000e+00 0.0000e+00 -1.0000e+00
       22  1    3    3    0    0 -6.3569484855e-08 -1.0330309534e-05 -4.7375798850e-05 4.8489026107e-05 0.0000000000e+00 0.0000e+00 -1.0000e+00
<mgrwt>
<rscale>  2 0.12500000E+03</rscale>
<asrwt>0</asrwt>
<pdfrwt beam="1">  1       21 0.18438349E-02 0.12500000E+03</pdfrwt>
<pdfrwt beam="2">  1       21 0.45816318E-01 0.12500000E+03</pdfrwt>
<totfact> 0.61260404E+06</totfact>
</mgrwt>
</event>
<event>
 6      0 +4.1053447e-01 1.25000000e+02 7.54677100e-03 1.12640300e-01
       21 -1    0    0  502  501 +0.0000000000e+00 +0.0000000000e+00 +1.0518524094e+02 1.0518524094e+02 0.0000000000e+00 0.0000e+00 1.0000e+00
       21 -1    0    0  501  502 -0.0000000000e+00 -0.0000000000e+00 -3.7136864116e+01 3.7136864116e+01 0.0000000000e+00 0.0000e+00 1.0000e+00
       25  2    1    2    0    0 +0.0000000000e+00 +0.0000000000e+00 +6.8048376828e+01 1.4232210506e+02 1.2500000000e+02 0.0000e+00 0.0000e+00
      -15  1    3    3    0    0 +2.3738374487e+01 +7.7475824096e+00 +9.9227523458e+01 1.0233667279e+02 1.7770000000e+00 0.0000e+00 1.0000e+00
       15  1    3    3    0    0 -2.3738384529e+01 -7.7475775973e+00 -3.1179158335e+01 3.9985416118e+01 1.7770000000e+00 0.0000e+00 1.0000e+00
       22  1    3    3    0    0 +1.0042368107e-05 -4.8122763301e-06 +1.1704528798e-05 1.6155592067e-05 0.0000000000e+00 0.0000e+00 -1.0000e+00
<mgrwt>
<rscale>  2 0.12500000E+03</rscale>
<asrwt>0</asrwt>
<pdfrwt beam="1">  1       21 0.15468418E-01 0.12500000E+03</pdfrwt>
<pdfrwt beam="2">  1       21 0.54613036E-02 0.12500000E+03</pdfrwt>
<totfact> 0.85937946E+06</totfact>
</mgrwt>
</event>
<event>
 6      0 +4.1053447e-01 1.25000000e+02 7.54677100e-03 1.12640300e-01
       21 -1    0    0  502  501 +0.0000000000e+00 +0.0000000000e+00 +7.1266741617e+01 7.1266741617e+01 0.0000000000e+00 0.0000e+00 -1.0000e+00
       21 -1    0    0  501  502 -0.0000000000e+00 -0.0000000000e+00 -5.4811682299e+01 5.4811682299e+01 0.0000000000e+00 0.0000e+00 -1.0000e+00
       25  2    1    2    0    0 +0.0000000000e+00 +0.0000000000e+00 +1.6455059318e+01 1.2607842392e+02 1.2500000000e+02 0.0000e+00 0.0000e+00
      -15  1    3    3    0    0 +4.8750767569e+00 -5.5184585996e+01 +3.0936103584e+01 6.3476807881e+01 1.7770000000e+00 0.0000e+00 1.0000e+00
       15  1    3    3    0    0 -5.1244237041e+00 +5.7456661072e+01 -1.5961092052e+01 5.9878558837e+01 1.7770000000e+00 0.0000e+00 1.0000e+00
       22  1    3    3    0    0 +2.4934694718e-01 -2.2720750768e+00 +1.4800477847e+00 2.7230571973e+00 0.0000000000e+00 0.0000e+00 1.0000e+00
<mgrwt>
<rscale>  2 0.12500000E+03</rscale>
<asrwt>0</asrwt>
<pdfrwt beam="1">  1       21 0.10480403E-01 0.12500000E+03</pdfrwt>
<pdfrwt beam="2">  1       21 0.80605415E-02 0.12500000E+03</pdfrwt>
<totfact> 0.88797604E+06</totfact>
</mgrwt>
</event>
<event>
 6      0 +4.1053447e-01 1.25000000e+02 7.54677100e-03 1.12640300e-01
       21 -1    0    0  502  501 +0.0000000000e+00 +0.0000000000e+00 +5.4615588043e+02 5.4615588043e+02 0.0000000000e+00 0.0000e+00 -1.0000e+00
       21 -1    0    0  501  502 -0.0000000000e+00 -0.0000000000e+00 -7.1522620922e+00 7.1522620922e+00 0.0000000000e+00 0.0000e+00 -1.0000e+00
       25  2    1    2    0    0 +0.0000000000e+00 +0.0000000000e+00 +5.3900361834e+02 5.5330814252e+02 1.2500000000e+02 0.0000e+00 0.0000e+00
      -15  1    3    3    0    0 +2.7825726506e+01 -5.0500714000e+01 +1.6901236137e+02 1.7858591544e+02 1.7770000000e+00 0.0000e+00 -1.0000e+00
       15  1    3    3    0    0 -2.8267379558e+01 +5.1071756010e+01 +3.6798074825e+02 3.7258604083e+02 1.7770000000e+00 0.0000e+00 -1.0000e+00
       22  1    3    3    0    0 +4.4165305218e-01 -5.7104201019e-01 +2.0105087977e+00 2.1361863265e+00 0.0000000000e+00 0.0000e+00 1.0000e+00
<mgrwt>
<rscale>  2 0.12500000E+03</rscale>
<asrwt>0</asrwt>
<pdfrwt beam="1">  1       21 0.80317013E-01 0.12500000E+03</pdfrwt>
<pdfrwt beam="2">  1       21 0.10518036E-02 0.12500000E+03</pdfrwt>
<totfact> 0.41572141E+06</totfact>
</mgrwt>
</event>
<event>
 6      0 +4.1053447e-01 1.25000000e+02 7.54677100e-03 1.12640300e-01
       21 -1    0    0  502  501 +0.0000000000e+00 +0.0000000000e+00 +1.4976566107e+02 1.4976566107e+02 0.0000000000e+00 0.0000e+00 1.0000e+00
       21 -1    0    0  501  502 -0.0000000000e+00 -0.0000000000e+00 -2.6082414166e+01 2.6082414166e+01 0.0000000000e+00 0.0000e+00 1.0000e+00
       25  2    1    2    0    0 +0.0000000000e+00 +0.0000000000e+00 +1.2368324691e+02 1.7584807524e+02 1.2500000000e+02 0.0000e+00 0.0000e+00
      -15  1    3    3    0    0 +5.9228091603e+01 -1.9279309255e+01 +5.5031615576e+01 8.3134198993e+01 1.7770000000e+00 0.0000e+00 -1.0000e+00
       15  1    3    3    0    0 -5.9228068406e+01 +1.9279305197e+01 +6.8651603425e+01 9.2713839732e+01 1.7770000000e+00 0.0000e+00 -1.0000e+00
       22  1    3    3    0    0 -2.3197140777e-05 +4.0582404272e-06 +2.7910625006e-05 3.6518209757e-05 0.0000000000e+00 0.0000e+00 1.0000e+00
<mgrwt>
<rscale>  2 0.12500000E+03</rscale>
<asrwt>0</asrwt>
<pdfrwt beam="1">  1       21 0.22024362E-01 0.12500000E+03</pdfrwt>
<pdfrwt beam="2">  1       21 0.38356492E-02 0.12500000E+03</pdfrwt>
<totfact> 0.80446335E+06</totfact>
</mgrwt>
</event>
<event>
 6      0 +4.1053447e-01 1.25000000e+02 7.54677100e-03 1.12640300e-01
       21 -1    0    0  502  501 +0.0000000000e+00 +0.0000000000e+00 +3.5199037257e+01 3.5199037257e+01 0.0000000000e+00 0.0000e+00 1.0000e+00
       21 -1    0    0  501  502 -0.0000000000e+00 -0.0000000000e+00 -1.1097604663e+02 1.1097604663e+02 0.0000000000e+00 0.0000e+00 1.0000e+00
       25  2    1    2    0    0 +0.0000000000e+00 +0.0000000000e+00 -7.5777009376e+01 1.4617508389e+02 1.2500000000e+02 0.0000e+00 0.0000e+00
      -15  1    3    3    0    0 +1.1565893475e+01 +6.0693763189e+01 -2.7431672571e+01 6.7625122336e+01 1.7770000000e+00 0.0000e+00 1.0000e+00
       15  1    3    3    0    0 -1.1553787369e+01 -6.0743373615e+01 -4.8316361603e+01 7.8491247718e+01 1.7770000000e+00 0.0000e+00 1.0000e+00
       22  1    3    3    0    0 -1.2106106027e-02 +4.9610425537e-02 -2.8975201760e-02 5.8713835185e-02 0.0000000000e+00 0.0000e+00 -1.0000e+00
<mgrwt>
<rscale>  2 0.12500000E+03</rscale>
<asrwt>0</asrwt>
<pdfrwt beam="1">  1       21 0.51763290E-02 0.12500000E+03</pdfrwt>
<pdfrwt beam="2">  1       21 0.16320007E-01 0.12500000E+03</pdfrwt>
<totfact> 0.85272818E+06</totfact>
</mgrwt>
</event>
<event>
 6      0 +4.1053447e-01 1.25000000e+02 7.54677100e-03 1.12640300e-01
       21 -1    0    0  502  501 +0.0000000000e+00 +0.0000000000e+00 +2.6046642199e+01 2.6046642199e+01 0.0000000000e+00 0.0000e+00 1.0000e+00
       21 -1    0    0  501  502 -0.0000000000e+00 -0.0000000000e+00 -1.4997134641e+02 1.4997134641e+02 0.0000000000e+00 0.0000e+00 1.0000e+00
       25  2    1    2    0    0 +0.0000000000e+00 +0.0000000000e+00 -1.2392470421e+02 1.7601798861e+02 1.2500000000e+02 0.0000e+00 0.0000e+00
      -15  1    3    3    0    0 -1.4834087730e+01 -4.7257481217e+01 -8.3460348108e+00 5.0260657733e+01 1.7770000000e+00 0.0000e+00 1.0000e+00
       15  1    3    3    0    0 +1.4834079997e+01 +4.7257464362e+01 -1.1557861994e+02 1.2575727806e+02 1.7770000000e+00 0.0000e+00 1.0000e+00
       22  1    3    3    0    0 +7.7327307173e-06 +1.6855054137e-05 -4.9453856669e-05 5.2816398152e-05 0.0000000000e+00 0.0000e+00 -1.0000e+00
<mgrwt>
<rscale>  2 0.12500000E+03</rscale>
<asrwt>0</asrwt>
<pdfrwt beam="1">  1       21 0.38303886E-02 0.12500000E+03</pdfrwt>
<pdfrwt beam="2">  1       21 0.22054609E-01 0.12500000E+03</pdfrwt>
<totfact> 0.80419964E+06</totfact>
</mgrwt>
</event>
<event>
 6      0 +4.1053447e-01 1.25000000e+02 7.54677100e-03 1.12640300e-01
       21 -1    0    0  502  501 +0.0000000000e+00 +0.0000000000e+00 +1.5344596801e+02 1.5344596801e+02 0.0000000000e+00 0.0000e+00 -1.0000e+00
       21 -1    0    0  501  502 -0.0000000000e+00 -0.0000000000e+00 -2.5456843543e+01 2.5456843543e+01 0.0000000000e+00 0.0000e+00 -1.0000e+00
       25  2    1    2    0    0 +0.0000000000e+00 +0.0000000000e+00 +1.2798912447e+02 1.7890281156e+02 1.2500000000e+02 0.0000e+00 0.0000e+00
      -15  1    3    3    0    0 -3.0950889970e+01 -4.5665551191e+01 +1.0504457022e+02 1.1866262941e+02 1.7770000000e+00 0.0000e+00 1.0000e+00
       15  1    3    3    0    0 +3.1063929929e+01 +4.5835919240e+01 +2.2583672150e+01 5.9825406074e+01 1.7770000000e+00 0.0000e+00 1.0000e+00
       22  1    3    3    0    0 -1.1303995981e-01 -1.7036804864e-01 +3.6088209088e-01 4.1477606974e-01 0.0000000000e+00 0.0000e+00 1.0000e+00
<mgrwt>
<rscale>  2 0.12500000E+03</rscale>
<asrwt>0</asrwt>
<pdfrwt beam="1">  1       21 0.22565583E-01 0.12500000E+03</pdfrwt>
<pdfrwt beam="2">  1       21 0.37436535E-02 0.12500000E+03</pdfrwt>
<totfact> 0.79974622E+06</totfact>
</mgrwt>
</event>
<event>
 6      0 +4.1053447e-01 1.25000000e+02 7.54677100e-03 1.12640300e-01
       21 -1    0    0  502  501 +0.0000000000e+00 +0.0000000000e+00 +9.9665633596e+01 9.9665633596e+01 0.0000000000e+00 0.0000e+00 1.0000e+00
       21 -1    0    0  501  502 -0.0000000000e+00 -0.0000000000e+00 -3.9193550064e+01 3.9193550064e+01 0.0000000000e+00 0.0000e+00 1.0000e+00
       25  2    1    2    0    0 +0.0000000000e+00 +0.0000000000e+00 +6.0472083532e+01 1.3885918366e+02 1.2500000000e+02 0.0000e+00 0.0000e+00
      -15  1    3    3    0    0 +1.3311889460e+01 +2.7588390263e+01 -3.0250650958e+01 4.3088110780e+01 1.7770000000e+00 0.0000e+00 -1.0000e+00
       15  1    3    3    0    0 -1.3311889895e+01 -2.7588390989e+01 +9.0722735353e+01 9.5771071670e+01 1.7770000000e+00 0.0000e+00 -1.0000e+00
       22  1    3    3    0    0 +4.3446115834e-07 +7.2622883408e-07 -8.6371265539e-07 1.2091998877e-06 0.0000000000e+00 0.0000e+00 1.0000e+00
<mgrwt>
<rscale>  2 0.12500000E+03</rscale>
<asrwt>0</asrwt>
<pdfrwt beam="1">  1       21 0.14656711E-01 0.12500000E+03</pdfrwt>
<pdfrwt beam="2">  1       21 0.57637574E-02 0.12500000E+03</pdfrwt>
<totfact> 0.86537297E+06</totfact>
</mgrwt>
</event>
<event>
 6      0 +4.1053447e-01 1.25000000e+02 7.54677100e-03 1.12640300e-01
       21 -1    0    0  502  501 +0.0000000000e+00 +0.0000000000e+00 +6.9830145553e+01 6.9830145553e+01 0.0000000000e+00 0.0000e+00 -1.0000e+00
       21 -1    0    0  501  502 -0.0000000000e+00 -0.0000000000e+00 -5.5939307717e+01 5.5939307717e+01 0.0000000000e+00 0.0000e+00 -1.0000e+00
       25  2    1    2    0    0 +0.0000000000e+00 +0.0000000000e+00 +1.3890837836e+01 1.2576945327e+02 1.2500000000e+02 0.0000e+00 0.0000e+00
      -15  1    3    3    0    0 +2.5102204330e+01 -1.2567095444e-01 +6.4507331875e+01 6.9242256246e+01 1.7770000000e+00 0.0000e+00 1.0000e+00
       15  1    3    3    0    0 -2.5101834829e+01 +1.2567850082e-01 -5.0615887919e+01 5.6526487117e+01 1.7770000000e+00 0.0000e+00 1.0000e+00
       22  1    3    3    0    0 -3.6950035233e-04 -7.5463815194e-06 -6.0611950826e-04 7.0990725911e-04 0.0000000000e+00 0.0000e+00 1.0000e+00
<mgrwt>
<rscale>  2 0.12500000E+03</rscale>
<asrwt>0</asrwt>
<pdfrwt beam="1">  1       21 0.10269139E-01 0.12500000E+03</pdfrwt>
<pdfrwt beam="2">  1       21 0.82263688E-02 0.12500000E+03</pdfrwt>
<totfact> 0.88853681E+06</totfact>
</mgrwt>
</event>
<event>
 6      0 +4.1053447e-01 1.25000000e+02 7.54677100e-03 1.12640300e-01
       21 -1    0    0  502  501 +0.0000000000e+00 +0.0000000000e+00 +5.9006789805e+01 5.9006789805e+01 0.0000000000e+00 0.0000e+00 -1.0000e+00
       21 -1    0    0  501  502 -0.0000000000e+00 -0.0000000000e+00 -6.6200008726e+01 6.6200008726e+01 0.0000000000e+00 0.0000e+00 -1.0000e+00
       25  2    1    2    0    0 +0.0000000000e+00 +0.0000000000e+00 -7.1932189205e+00 1.2520679853e+02 1.2500000000e+02 0.0000e+00 0.0000e+00
      -15  1    3    3    0    0 -5.7409516802e+01 +2.2160967899e+01 +7.1976354397e+00 6.1983262278e+01 1.7770000000e+00 0.0000e+00 1.0000e+00
       15  1    3    3    0    0 +5.7409515864e+01 -2.2160967575e+01 -1.4390854054e+01 6.3223535215e+01 1.7770000000e+00 0.0000e+00 1.0000e+00
       22  1    3    3    0    0 +9.3813544456e-07 -3.2397110300e-07 -3.0601483363e-07 1.0386050579e-06 0.0000000000e+00 0.0000e+00 -1.0000e+00
<mgrwt>
<rscale>  2 0.12500000E+03</rscale>
<asrwt>0</asrwt>
<pdfrwt beam="1">  1       21 0.86774691E-02 0.12500000E+03</pdfrwt>
<pdfrwt beam="2">  1       21 0.97352954E-02 0.12500000E+03</pdfrwt>
<totfact> 0.88959446E+06</totfact>
</mgrwt>
</event>
<event>
 6      0 +4.1053447e-01 1.25000000e+02 7.54677100e-03 1.12640300e-01
       21 -1    0    0  502  501 +0.0000000000e+00 +0.0000000000e+00 +2.3770255139e+01 2.3770255139e+01 0.0000000000e+00 0.0000e+00 1.0000e+00
       21 -1    0    0  501  502 -0.0000000000e+00 -0.0000000000e+00 -1.6433353269e+02 1.6433353269e+02 0.0000000000e+00 0.0000e+00 1.0000e+00
       25  2    1    2    0    0 +0.0000000000e+00 +0.0000000000e+00 -1.4056327755e+02 1.8810378783e+02 1.2500000000e+02 0.0000e+00 0.0000e+00
      -15  1    3    3    0    0 +1.7591509376e+01 -3.8156507081e+01 -1.3985581470e+02 1.4604172989e+02 1.7770000000e+00 0.0000e+00 1.0000e+00
       15  1    3    3    0    0 -1.7591923551e+01 +3.8156613908e+01 -7.0563260973e-01 4.2060178383e+01 1.7770000000e+00 0.0000e+00 1.0000e+00
       22  1    3    3    0    0 +4.1417505634e-04 -1.0682715973e-04 -1.8302385514e-03 1.8795547809e-03 0.0000000000e+00 0.0000e+00 -1.0000e+00
<mgrwt>
<rscale>  2 0.12500000E+03</rscale>
<asrwt>0</asrwt>
<pdfrwt beam="1">  1       21 0.34956257E-02 0.12500000E+03</pdfrwt>
<pdfrwt beam="2">  1       21 0.24166696E-01 0.12500000E+03</pdfrwt>
<totfact> 0.78581029E+06</totfact>
</mgrwt>
</event>
<event>
 6      0 +4.1053447e-01 1.25000000e+02 7.54677100e-03 1.12640300e-01
       21 -1    0    0  502  501 +0.0000000000e+00 +0.0000000000e+00 +3.5964394276e+00 3.5964394276e+00 0.0000000000e+00 0.0000e+00 -1.0000e+00
       21 -1    0    0  501  502 -0.0000000000e+00 -0.0000000000e+00 -1.0861436926e+03 1.0861436926e+03 0.0000000000e+00 0.0000e+00 -1.0000e+00
       25  2    1    2    0    0 +0.0000000000e+00 +0.0000000000e+00 -1.0825472531e+03 1.0897401320e+03 1.2500000000e+02 0.0000e+00 0.0000e+00
      -15  1    3    3    0    0 +3.7382603730e+01 -2.8400403250e+01 -8.9565637741e+02 8.9688769982e+02 1.7770000000e+00 0.0000e+00 1.0000e+00
       15  1    3    3    0    0 -3.7520635667e+01 +2.8523839337e+01 -1.8376976489e+02 1.8972583306e+02 1.7770000000e+00 0.0000e+00 1.0000e+00
       22  1    3    3    0    0 +1.3803193724e-01 -1.2343608673e-01 -3.1211074433e+00 3.1265957455e+00 0.0000000000e+00 0.0000e+00 -1.0000e+00
<mgrwt>
<rscale>  2 0.12500000E+03</rscale>
<asrwt>0</asrwt>
<pdfrwt beam="1">  1       21 0.52888805E-03 0.12500000E+03</pdfrwt>
<pdfrwt beam="2">  1       21 0.15972704E+00 0.12500000E+03</pdfrwt>
<totfact> 0.18672732E+06</totfact>
</mgrwt>
</event>
<event>
 6      0 +4.1053447e-01 1.25000000e+02 7.54677100e-03 1.12640300e-01
       21 -1    0    0  502  501 +0.0000000000e+00 +0.0000000000e+00 +1.5098192428e+01 1.5098192428e+01 0.0000000000e+00 0.0000e+00 -1.0000e+00
       21 -1    0    0  501  502 -0.0000000000e+00 -0.0000000000e+00 -2.5872302388e+02 2.5872302388e+02 0.0000000000e+00 0.0000e+00 -1.0000e+00
       25  2    1    2    0    0 +0.0000000000e+00 +0.0000000000e+00 -2.4362483145e+02 2.7382121631e+02 1.2500000000e+02 0.0000e+00 0.0000e+00
      -15  1    3    3    0    0 -5.1879480676e+01 +2.6258080030e+01 -1.7186705334e+02 1.8144533346e+02 1.7770000000e+00 0.0000e+00 1.0000e+00
       15  1    3    3    0    0 +5.1879480674e+01 -2.6258080033e+01 -7.1757778087e+01 9.2375882821e+01 1.7770000000e+00 0.0000e+00 1.0000e+00
       22  1    3    3    0    0 +1.2405962365e-09 +3.4843317765e-09 -2.3622309317e-09 4.3885968060e-09 0.0000000000e+00 0.0000e+00 1.0000e+00
<mgrwt>
<rscale>  2 0.12500000E+03</rscale>
<asrwt>0</asrwt>
<pdfrwt beam="1">  1       21 0.22203225E-02 0.12500000E+03</pdfrwt>
<pdfrwt beam="2">  1       21 0.38047502E-01 0.12500000E+03</pdfrwt>
<totfact> 0.67033801E+06</totfact>
</mgrwt>
</event>
<event>
 6      0 +4.1053447e-01 1.25000000e+02 7.54677100e-03 1.12640300e-01
       21 -1    0    0  502  501 +0.0000000000e+00 +0.0000000000e+00 +1.7741346839e+02 1.7741346839e+02 0.0000000000e+00 0.0000e+00 -1.0000e+00
       21 -1    0    0  501  502 -0.0000000000e+00 -0.0000000000e+00 -2.2017775964e+01 2.2017775964e+01 0.0000000000e+00 0.0000e+00 -1.0000e+00
       25  2    1    2    0    0 +0.0000000000e+00 +0.0000000000e+00 +1.5539569242e+02 1.9943124435e+02 1.2500000000e+02 0.0000e+00 0.0000e+00
      -15  1    3    3    0    0 +2.9811541440e+01 +9.7434742151e+00 +1.6390278407e+02 1.6688601993e+02 1.7770000000e+00 0.0000e+00 -1.0000e+00
       15  1    3    3    0    0 -2.9811541254e+01 -9.7434741756e+00 -8.5070917126e+00 3.2545224218e+01 1.7770000000e+00 0.0000e+00 -1.0000e+00
       22  1    3    3    0    0 -1.8623190475e-07 -3.9516098559e-08 +5.9942198093e-08 1.9959186232e-07 0.0000000000e+00 0.0000e+00 1.0000e+00
<mgrwt>
<rscale>  2 0.12500000E+03</rscale>
<asrwt>0</asrwt>
<pdfrwt beam="1">  1       21 0.26090215E-01 0.12500000E+03</pdfrwt>
<pdfrwt beam="2">  1       21 0.32379083E-02 0.12500000E+03</pdfrwt>
<totfact> 0.76901951E+06</totfact>
</mgrwt>
</event>
<event>
 6      0 +4.1053447e-01 1.25000000e+02 7.54677100e-03 1.12640300e-01
       21 -1    0    0  502  501 +0.0000000000e+00 +0.0000000000e+00 +1.1099459853e+02 1.1099459853e+02 0.0000000000e+00 0.0000e+00 1.0000e+00
       21 -1    0    0  501  502 -0.0000000000e+00 -0.0000000000e+00 -3.5193154008e+01 3.5193154008e+01 0.0000000000e+00 0.0000e+00 1.0000e+00
       25  2    1    2    0    0 +0.0000000000e+00 +0.0000000000e+00 +7.5801444519e+01 1.4618775253e+02 1.2500000000e+02 0.0000e+00 0.0000e+00
      -15  1    3    3    0    0 -4.7667260678e+00 -5.8075625520e+01 +6.4249379915e+01 8.6756213065e+01 1.7770000000e+00 0.0000e+00 1.0000e+00
       15  1    3    3    0    0 +4.7667260638e+00 +5.8075625525e+01 +1.1552064604e+01 5.9431539464e+01 1.7770000000e+00 0.0000e+00 1.0000e+00
       22  1    3    3    0    0 +4.0400214796e-09 -4.7413475239e-09 +4.3182130265e-09 7.5795193541e-09 0.0000000000e+00 0.0000e+00 1.0000e+00
<mgrwt>
<rscale>  2 0.12500000E+03</rscale>
<asrwt>0</asrwt>
<pdfrwt beam="1">  1       21 0.16322735E-01 0.12500000E+03</pdfrwt>
<pdfrwt beam="2">  1       21 0.51754638E-02 0.12500000E+03</pdfrwt>
<totfact> 0.85270654E+06</totfact>
</mgrwt>
</event>
<event>
 6      0 +4.1053447e-01 1.25000000e+02 7.54677100e-03 1.12640300e-01
       21 -1    0    0  502  501 +0.0000000000e+00 +0.0000000000e+00 +9.0631170524e+00 9.0631170524e+00 0.0000000000e+00 0.0000e+00 1.0000e+00
       21 -1    0    0  501  502 -0.0000000000e+00 -0.0000000000e+00 -4.3100513625e+02 4.3100513625e+02 0.0000000000e+00 0.0000e+00 1.0000e+00
       25  2    1    2    0    0 +0.0000000000e+00 +0.0000000000e+00 -4.2194201920e+02 4.4006825330e+02 1.2500000000e+02 0.0000e+00 0.0000e+00
      -15  1    3    3    0    0 -4.0754475369e+01 +4.0417418397e+01 -1.2411996751e+02 1.3676044397e+02 1.7770000000e+00 0.0000e+00 1.0000e+00
       15  1    3    3    0    0 +4.0754475259e+01 -4.0417418430e+01 -2.9782205165e+02 3.0330780923e+02 1.7770000000e+00 0.0000e+00 1.0000e+00
       22  1    3    3    0    0 +1.0942756287e-07 +3.3484585659e-08 -1.0547460474e-07 1.5562937139e-07 0.0000000000e+00 0.0000e+00 1.0000e+00
<mgrwt>
<rscale>  2 0.12500000E+03</rscale>
<asrwt>0</asrwt>
<pdfrwt beam="1">  1       21 0.13328107E-02 0.12500000E+03</pdfrwt>
<pdfrwt beam="2">  1       21 0.63383137E-01 0.12500000E+03</pdfrwt>
<totfact> 0.50109537E+06</totfact>
</mgrwt>
</event>
<event>
 6      0 +4.1053447e-01 1.25000000e+02 7.54677100e-03 1.12640300e-01
       21 -1    0    0  502  501 +0.0000000000e+00 +0.0000000000e+00 +1.1614155700e+01 1.1614155700e+01 0.0000000000e+00 0.0000e+00 -1.0000e+00
       21 -1    0    0  501  502 -0.0000000000e+00 -0.0000000000e+00 -3.3633525338e+02 3.3633525338e+02 0.0000000000e+00 0.0000e+00 -1.0000e+00
       25  2    1    2    0    0 +0.0000000000e+00 +0.0000000000e+00 -3.2472109768e+02 3.4794940908e+02 1.2500000000e+02 0.0000e+00 0.0000e+00
      -15  1    3    3    0    0 +1.5960964733e+01 +5.2857809185e+01 -2.4372499026e+02 2.4990744085e+02 1.7770000000e+00 0.0000e+00 1.0000e+00
       15  1    3    3    0    0 -1.5960964731e+01 -5.2857809184e+01 -8.0996107396e+01 9.8041968203e+01 1.7770000000e+00 0.0000e+00 1.0000e+00
       22  1    3    3    0    0 -1.7619910368e-09 -7.1849611463e-10 -1.4903611269e-08 1.5024595767e-08 0.0000000000e+00 0.0000e+00 1.0000e+00
<mgrwt>
<rscale>  2 0.12500000E+03</rscale>
<asrwt>0</asrwt>
<pdfrwt beam="1">  1       21 0.17079639E-02 0.12500000E+03</pdfrwt>
<pdfrwt beam="2">  1       21 0.49461072E-01 0.12500000E+03</pdfrwt>
<totfact> 0.58739467E+06</totfact>
</mgrwt>
</event>
<event>
 6      0 +4.1053447e-01 1.25000000e+02 7.54677100e-03 1.12640300e-01
       21 -1    0    0  502  501 +0.0000000000e+00 +0.0000000000e+00 +1.0626171156e+02 1.0626171156e+02 0.0000000000e+00 0.0000e+00 -1.0000e+00
       21 -1    0    0  501  502 -0.0000000000e+00 -0.0000000000e+00 -3.6760653885e+01 3.6760653885e+01 0.0000000000e+00 0.0000e+00 -1.0000e+00
       25  2    1    2    0    0 +0.0000000000e+00 +0.0000000000e+00 +6.9501057678e+01 1.4302236545e+02 1.2500000000e+02 0.0000e+00 0.0000e+00
      -15  1    3    3    0    0 +8.4613456536e+00 +6.1077276769e+01 +4.6252990147e+01 7.7100745355e+01 1.7770000000e+00 0.0000e+00 -1.0000e+00
       15  1    3    3    0    0 -8.4613453931e+00 -6.1077282758e+01 +2.3248062774e+01 6.5921612440e+01 1.7770000000e+00 0.0000e+00 -1.0000e+00
       22  1    3    3    0    0 -2.6055126510e-07 +5.9895028064e-06 +4.7560284999e-06 7.6525706741e-06 0.0000000000e+00 0.0000e+00 -1.0000e+00
<mgrwt>
<rscale>  2 0.12500000E+03</rscale>
<asrwt>0</asrwt>
<pdfrwt beam="1">  1       21 0.15626722E-01 0.12500000E+03</pdfrwt>
<pdfrwt beam="2">  1       21 0.54059785E-02 0.12500000E+03</pdfrwt>
<totfact> 0.85816298E+06</totfact>
</mgrwt>
</event>
<event>
 6      0 +4.1053447e-01 1.25000000e+02 7.54677100e-03 1.12640300e-01
       21 -1    0    0  502  501 +0.0000000000e+00 +0.0000000000e+00 +8.7711484178e+00 8.7711484178e+00 0.0000000000e+00 0.0000e+00 1.0000e+00
       21 -1    0    0  501  502 -0.0000000000e+00 -0.0000000000e+00 -4.4535217214e+02 4.4535217214e+02 0.0000000000e+00 0.0000e+00 1.0000e+00
       25  2    1    2    0    0 +0.0000000000e+00 +0.0000000000e+00 -4.3658102372e+02 4.5412332055e+02 1.2500000000e+02 0.0000e+00 0.0000e+00
      -15  1    3    3    0    0 -2.8219720008e+01 +3.9947091176e+01 -7.7075682248e+01 9.1301375750e+01 1.7770000000e+00 0.0000e+00 1.0000e+00
       15  1    3    3    0    0 +2.8218741423e+01 -3.9949390076e+01 -3.5949308663e+02 3.6280943785e+02 1.7770000000e+00 0.0000e+00 1.0000e+00
       22  1    3    3    0    0 +9.7858540823e-04 +2.2988996164e-03 -1.2254918771e-02 1.2507022145e-02 0.0000000000e+00 0.0000e+00 -1.0000e+00
<mgrwt>
<rscale>  2 0.12500000E+03</rscale>
<asrwt>0</asrwt>
<pdfrwt beam="1">  1       21 0.12898751E-02 0.12500000E+03</pdfrwt>
<pdfrwt beam="2">  1       21 0.65492951E-01 0.12500000E+03</pdfrwt>
<totfact> 0.48934028E+06</totfact>
</mgrwt>
</event>
<event>
 6      0 +4.1053447e-01 1.25000000e+02 7.54677100e-03 1.12640300e-01
       21 -1    0    0  502  501 +0.0000000000e+00 +0.0000000000e+00 +1.1983060326e+02 1.1983060326e+02 0.0000000000e+00 0.0000e+00 -1.0000e+00
       21 -1    0    0  501  502 -0.0000000000e+00 -0.0000000000e+00 -3.2598100099e+01 3.2598100099e+01 0.0000000000e+00 0.0000e+00 -1.0000e+00
       25  2    1    2    0    0 +0.0000000000e+00 +0.0000000000e+00 +8.7232503162e+01 1.5242870336e+02 1.2500000000e+02 0.0000e+00 0.0000e+00
      -15  1    3    3    0    0 -5.7004339497e+01 +1.6339327844e+01 +1.9639051942e+01 6.2492547124e+01 1.7770000000e+00 0.0000e+00 -1.0000e+00
       15  1    3    3    0    0 +5.7004380746e+01 -1.6339338797e+01 +6.7593439823e+01 8.9936112061e+01 1.7770000000e+00 0.0000e+00 -1.0000e+00
       22  1    3    3    0    0 -4.1248970949e-05 +1.0953218089e-05 +1.1396463786e-05 4.4173860796e-05 0.0000000000e+00 0.0000e+00 -1.0000e+00
<mgrwt>
<rscale>  2 0.12500000E+03</rscale>
<asrwt>0</asrwt>
<pdfrwt beam="1">  1       21 0.17622147E-01 0.12500000E+03</pdfrwt>
<pdfrwt beam="2">  1       21 0.47938383E-02 0.12500000E+03</pdfrwt>
<totfact> 0.84220197E+06</totfact>
</mgrwt>
</event>
<event>
 6      0 +4.1053447e-01 1.25000000e+02 7.54677100e-03 1.12640300e-01
       21 -1    0    0  502  501 +0.0000000000e+00 +0.0000000000e+00 +7.8650218055e+01 7.8650218055e+01 0.0000000000e+00 0.0000e+00 1.0000e+00
       21 -1    0    0  501  502 -0.0000000000e+00 -0.0000000000e+00 -4.9666105150e+01 4.9666105150e+01 0.0000000000e+00 0.0000e+00 1.0000e+00
       25  2    1    2    0    0 +0.0000000000e+00 +0.0000000000e+00 +2.8984112905e+01 1.2831632321e+02 1.2500000000e+02 0.0000e+00 0.0000e+00
      -15  1    3    3    0    0 +1.3835245731e+01 +3.8417655116e+01 -3.4038493701e+01 5.3189350734e+01 1.7770000000e+00 0.0000e+00 1.0000e+00
       15  1    3    3    0    0 -1.1720996784e+01 -3.3282970021e+01 +5.3926973806e+01 6.4470257421e+01 1.7770000000e+00 0.0000e+00 1.0000e+00
       22  1    3    3    0    0 -2.1142489473e+00 -5.1346850949e+00 +9.0956327990e+00 1.0656715050e+01 0.0000000000e+00 0.0000e+00 -1.0000e+00
<mgrwt>
<rscale>  2 0.12500000E+03</rscale>
<asrwt>0</asrwt>
<pdfrwt beam="1">  1       21 0.11566209E-01 0.12500000E+03</pdfrwt>
<pdfrwt beam="2">  1       21 0.73038389E-02 0.12500000E+03</pdfrwt>
<totfact> 0.88401667E+06</totfact>
</mgrwt>
</event>
<event>
 6      0 +4.1053447e-01 1.25000000e+02 7.54677100e-03 1.12640300e-01
       21 -1    0    0  502  501 +0.0000000000e+00 +0.0000000000e+00 +9.2093466811e+01 9.2093466811e+01 0.0000000000e+00 0.0000e+00 -1.0000e+00
       21 -1    0    0  501  502 -0.0000000000e+00 -0.0000000000e+00 -4.2416146718e+01 4.2416146718e+01 0.0000000000e+00 0.0000e+00 -1.0000e+00
       25  2    1    2    0    0 +0.0000000000e+00 +0.0000000000e+00 +4.9677320093e+01 1.3450961353e+02 1.2500000000e+02 0.0000e+00 0.0000e+00
      -15  1    3    3    0    0 -4.0809824527e+01 -1.1975590792e+01 -1.3437716316e+01 4.4638397166e+01 1.7770000000e+00 0.0000e+00 -1.0000e+00
       15  1    3    3    0    0 +3.2744935865e+01 +2.0729031615e+01 +1.7197673612e+01 4.2436320330e+01 1.7770000000e+00 0.0000e+00 -1.0000e+00
       22  1    3    3    0    0 +8.0648886620e+00 -8.7534408231e+00 +4.5917362798e+01 4.7434896033e+01 0.0000000000e+00 0.0000e+00 -1.0000e+00
<mgrwt>
<rscale>  2 0.12500000E+03</rscale>
<asrwt>0</asrwt>
<pdfrwt beam="1">  1       21 0.13543157E-01 0.12500000E+03</pdfrwt>
<pdfrwt beam="2">  1       21 0.62376686E-02 0.12500000E+03</pdfrwt>
<totfact> 0.87291796E+06</totfact>
</mgrwt>
</event>
<event>
 6      0 +4.1053447e-01 1.25000000e+02 7.54677100e-03 1.12640300e-01
       21 -1    0    0  502  501 +0.0000000000e+00 +0.0000000000e+00 +4.4998305861e+01 4.4998305861e+01 0.0000000000e+00 0.0000e+00 1.0000e+00
       21 -1    0    0  501  502 -0.0000000000e+00 -0.0000000000e+00 -8.6808823694e+01 8.6808823694e+01 0.0000000000e+00 0.0000e+00 1.0000e+00
       25  2    1    2    0    0 +0.0000000000e+00 +0.0000000000e+00 -4.1810517834e+01 1.3180712955e+02 1.2500000000e+02 0.0000e+00 0.0000e+00
      -15  1    3    3    0    0 +1.0211997814e+01 +5.6672381873e+01 -4.6453784094e+01 7.4007807373e+01 1.7770000000e+00 0.0000e+00 1.0000e+00
       15  1    3    3    0    0 -1.0211995869e+01 -5.6672264472e+01 +4.6432663549e+00 5.7799204766e+01 1.7770000000e+00 0.0000e+00 1.0000e+00
       22  1    3    3    0    0 -1.9458804136e-06 -1.1740113950e-04 -9.7059636084e-08 1.1741730463e-04 0.0000000000e+00 0.0000e+00 1.0000e+00
<mgrwt>
<rscale>  2 0.12500000E+03</rscale>
<asrwt>0</asrwt>
<pdfrwt beam="1">  1       21 0.66173980E-02 0.12500000E+03</pdfrwt>
<pdfrwt beam="2">  1       21 0.12766003E-01 0.12500000E+03</pdfrwt>
<totfact> 0.87770765E+06</totfact>
</mgrwt>
</event>
<event>
 6      0 +4.1053447e-01 1.25000000e+02 7.54677100e-03 1.12640300e-01
       21 -1    0    0  502  501 +0.0000000000e+00 +0.0000000000e+00 +7.1928898329e+00 7.1928898329e+00 0.0000000000e+00 0.0000e+00 1.0000e+00
       21 -1    0    0  501  502 -0.0000000000e+00 -0.0000000000e+00 -5.4307101746e+02 5.4307101746e+02 0.0000000000e+00 0.0000e+00 1.0000e+00
       25  2    1    2    0    0 +0.0000000000e+00 +0.0000000000e+00 -5.3587812763e+02 5.5026390729e+02 1.2500000000e+02 0.0000e+00 0.0000e+00
      -15  1    3    3    0    0 +2.0025822252e+01 -1.8647446292e+00 -7.5594320494e+00 2.1559535505e+01 1.7770000000e+00 0.0000e+00 1.0000e+00
       15  1    3    3    0    0 -2.0025780155e+01 +1.8647413773e+00 -5.2831788525e+02 5.2870356036e+02 1.7770000000e+00 0.0000e+00 1.0000e+00
       22  1    3    3    0    0 -4.2096170467e-05 +3.2518690389e-06 -8.1042777276e-04 8.1152685543e-04 0.0000000000e+00 0.0000e+00 -1.0000e+00
<mgrwt>
<rscale>  2 0.12500000E+03</rscale>
<asrwt>0</asrwt>
<pdfrwt beam="1">  1       21 0.10577775E-02 0.12500000E+03</pdfrwt>
<pdfrwt beam="2">  1       21 0.79863419E-01 0.12500000E+03</pdfrwt>
<totfact> 0.41776933E+06</totfact>
</mgrwt>
</event>
<event>
 6      0 +4.1053447e-01 1.25000000e+02 7.54677100e-03 1.12640300e-01
       21 -1    0    0  502  501 +0.0000000000e+00 +0.0000000000e+00 +4.6053941009e+02 4.6053941009e+02 0.0000000000e+00 0.0000e+00 1.0000e+00
       21 -1    0    0  501  502 -0.0000000000e+00 -0.0000000000e+00 -8.4819016883e+00 8.4819016883e+00 0.0000000000e+00 0.0000e+00 1.0000e+00
       25  2    1    2    0    0 +0.0000000000e+00 +0.0000000000e+00 +4.5205750841e+02 4.6902131178e+02 1.2500000000e+02 0.0000e+00 0.0000e+00
      -15  1    3    3    0    0 +4.7499321755e+00 +3.6361206271e+00 +4.5853729465e+02 4.5857975483e+02 1.7770000000e+00 0.0000e+00 -1.0000e+00
       15  1    3    3    0    0 -4.7526840921e+00 -3.6571486816e+00 -7.3045661311e+00 9.6165044543e+00 1.7770000000e+00 0.0000e+00 -1.0000e+00
       22  1    3    3    0    0 +2.7519165965e-03 +2.1028054489e-02 +8.2477997741e-01 8.2505258212e-01 0.0000000000e+00 0.0000e+00 1.0000e+00
<mgrwt>
<rscale>  2 0.12500000E+03</rscale>
<asrwt>0</asrwt>
<pdfrwt beam="1">  1       21 0.67726367E-01 0.12500000E+03</pdfrwt>
<pdfrwt beam="2">  1       21 0.12473388E-02 0.12500000E+03</pdfrwt>
<totfact> 0.47722615E+06</totfact>
</mgrwt>
</event>
<event>
 6      0 +4.1053447e-01 1.25000000e+02 7.54677100e-03 1.12640300e-01
       21 -1    0    0  502  501 +0.0000000000e+00 +0.0000000000e+00 +5.2785543343e+01 5.2785543343e+01 0.0000000000e+00 0.0000e+00 -1.0000e+00
       21 -1    0    0  501  502 -0.0000000000e+00 -0.0000000000e+00 -7.4002269420e+01 7.4002269420e+01 0.0000000000e+00 0.0000e+00 -1.0000e+00
       25  2    1    2    0    0 +0.0000000000e+00 +0.0000000000e+00 -2.1216726077e+01 1.2678781276e+02 1.2500000000e+02 0.0000e+00 0.0000e+00
      -15  1    3    3    0    0 -4.6678044123e+01 +3.7855139730e+01 +6.7014655173e+00 6.0497262551e+01 1.7770000000e+00 0.0000e+00 1.0000e+00
       15  1    3    3    0    0 +4.6678051265e+01 -3.7855145799e+01 -2.7918193364e+01 6.6290540676e+01 1.7770000000e+00 0.0000e+00 1.0000e+00
       22  1    3    3    0    0 -7.1418136855e-06 +6.0689699418e-06 +1.7688672117e-06 9.5376511828e-06 0.0000000000e+00 0.0000e+00 1.0000e+00
<mgrwt>
<rscale>  2 0.12500000E+03</rscale>
<asrwt>0</asrwt>
<pdfrwt beam="1">  1       21 0.77625800E-02 0.12500000E+03</pdfrwt>
<pdfrwt beam="2">  1       21 0.10882687E-01 0.12500000E+03</pdfrwt>
<totfact> 0.88670972E+06</totfact>
</mgrwt>
</event>
<event>
 6      0 +4.1053447e-01 1.25000000e+02 7.54677100e-03 1.12640300e-01
       21 -1    0    0  502  501 +0.0000000000e+00 +0.0000000000e+00 +1.4762563583e+02 1.4762563583e+02 0.0000000000e+00 0.0000e+00 -1.0000e+00
       21 -1    0    0  501  502 -0.0000000000e+00 -0.0000000000e+00 -2.6460512620e+01 2.6460512620e+01 0.0000000000e+00 0.0000e+00 -1.0000e+00
       25  2    1    2    0    0 +0.0000000000e+00 +0.0000000000e+00 +1.2116512321e+02 1.7408614845e+02 1.2500000000e+02 0.0000e+00 0.0000e+00
      -15  1    3    3    0    0 +2.6791960247e+01 +1.6130983179e+01 +1.3590468400e+02 1.3946776909e+02 1.7770000000e+00 0.0000e+00 1.0000e+00
       15  1    3    3    0    0 -2.6791965221e+01 -1.6130987064e+01 -1.4739576809e+01 3.4618362145e+01 1.7770000000e+00 0.0000e+00 1.0000e+00
       22  1    3    3    0    0 +4.9740830163e-06 +3.8855218327e-06 +1.6019086998e-05 1.7217721395e-05 0.0000000000e+00 0.0000e+00 1.0000e+00
<mgrwt>
<rscale>  2 0.12500000E+03</rscale>
<asrwt>0</asrwt>
<pdfrwt beam="1">  1       21 0.21709652E-01 0.12500000E+03</pdfrwt>
<pdfrwt beam="2">  1       21 0.38912519E-02 0.12500000E+03</pdfrwt>
<totfact> 0.80720744E+06</totfact>
</mgrwt>
</event>
<event>
 6      0 +4.1053447e-01 1.25000000e+02 7.54677100e-03 1.12640300e-01
       21 -1    0    0  502  501 +0.0000000000e+00 +0.0000000000e+00 +6.9196588816e+00 6.9196588816e+00 0.0000000000e+00 0.0000e+00 1.0000e+00
       21 -1    0    0  501  502 -0.0000000000e+00 -0.0000000000e+00 -5.6451482173e+02 5.6451482173e+02 0.0000000000e+00 0.0000e+00 1.0000e+00
       25  2    1    2    0    0 +0.0000000000e+00 +0.0000000000e+00 -5.5759516285e+02 5.7143448061e+02 1.2500000000e+02 0.0000e+00 0.0000e+00
      -15  1    3    3    0    0 +5.8703024673e+01 +2.0957445961e+01 -2.9810232507e+02 3.0455445094e+02 1.7770000000e+00 0.0000e+00 -1.0000e+00
       15  1    3    3    0    0 -5.8703024672e+01 -2.0957445929e+01 -2.5949283765e+02 2.6688002954e+02 1.7770000000e+00 0.0000e+00 -1.0000e+00
       22  1    3    3    0    0 -1.0291731971e-09 -3.1462048181e-08 -1.9250561763e-07 1.9506238103e-07 0.0000000000e+00 0.0000e+00 1.0000e+00
<mgrwt>
<rscale>  2 0.12500000E+03</rscale>
<asrwt>0</asrwt>
<pdfrwt beam="1">  1       21 0.10175970E-02 0.12500000E+03</pdfrwt>
<pdfrwt beam="2">  1       21 0.83016874E-01 0.12500000E+03</pdfrwt>
<totfact> 0.40370428E+06</totfact>
</mgrwt>
</event>
<event>
 6      0 +4.1053447e-01 1.25000000e+02 7.54677100e-03 1.12640300e-01
       21 -1    0    0  502  501 +0.0000000000e+00 +0.0000000000e+00 +6.8079919538e+01 6.8079919538e+01 0.0000000000e+00 0.0000e+00 -1.0000e+00
       21 -1    0    0  501  502 -0.0000000000e+00 -0.0000000000e+00 -5.7377417990e+01 5.7377417990e+01 0.0000000000e+00 0.0000e+00 -1.0000e+00
       25  2    1    2    0    0 +0.0000000000e+00 +0.0000000000e+00 +1.0702501548e+01 1.2545733753e+02 1.2500000000e+02 0.0000e+00 0.0000e+00
      -15  1    3    3    0    0 +4.8149492872e+01 -2.9737484690e+01 +3.1913128205e+01 6.4994593163e+01 1.7770000000e+00 0.0000e+00 -1.0000e+00
       15  1    3    3    0    0 -4.8149506942e+01 +2.9737483769e+01 -2.1210632394e+01 6.0462729142e+01 1.7770000000e+00 0.0000e+00 -1.0000e+00
       22  1    3    3    0    0 +1.4070130543e-05 +9.2142345156e-07 +5.7358909463e-06 1.5222287595e-05 0.0000000000e+00 0.0000e+00 -1.0000e+00
<mgrwt>
<rscale>  2 0.12500000E+03</rscale>
<asrwt>0</asrwt>
<pdfrwt beam="1">  1       21 0.10011753E-01 0.12500000E+03</pdfrwt>
<pdfrwt beam="2">  1       21 0.84378556E-02 0.12500000E+03</pdfrwt>
<totfact> 0.88911426E+06</totfact>
</mgrwt>
</event>
<event>
 6      0 +4.1053447e-01 1.25000000e+02 7.54677100e-03 1.12640300e-01
       21 -1    0    0  502  501 +0.0000000000e+00 +0.0000000000e+00 +5.4496442600e+01 5.4496442600e+01 0.0000000000e+00 0.0000e+00 1.0000e+00
       21 -1    0    0  501  502 -0.0000000000e+00 -0.0000000000e+00 -7.1678990658e+01 7.1678990658e+01 0.0000000000e+00 0.0000e+00 1.0000e+00
       25  2    1    2    0    0 +0.0000000000e+00 +0.0000000000e+00 -1.7182548058e+01 1.2617543326e+02 1.2500000000e+02 0.0000e+00 0.0000e+00
      -15  1    3    3    0    0 +5.1673960821e+01 +4.7722543419e+00 -4.3610863146e+01 6.7808832403e+01 1.7770000000e+00 0.0000e+00 -1.0000e+00
       15  1    3    3    0    0 -5.1728174322e+01 -4.7696450970e+00 +2.6431177459e+01 5.8312249176e+01 1.7770000000e+00 0.0000e+00 -1.0000e+00
       22  1    3    3    0    0 +5.4213501340e-02 -2.6092449288e-03 -2.8623708696e-03 5.4351679401e-02 0.0000000000e+00 0.0000e+00 1.0000e+00
<mgrwt>
<rscale>  2 0.12500000E+03</rscale>
<asrwt>0</asrwt>
<pdfrwt beam="1">  1       21 0.80141828E-02 0.12500000E+03</pdfrwt>
<pdfrwt beam="2">  1       21 0.10541028E-01 0.12500000E+03</pdfrwt>
<totfact> 0.88780143E+06</totfact>
</mgrwt>
</event>
<event>
 6      0 +4.1053447e-01 1.25000000e+02 7.54677100e-03 1.12640300e-01
       21 -1    0    0  502  501 +0.0000000000e+00 +0.0000000000e+00 +2.3117667798e+02 2.3117667798e+02 0.0000000000e+00 0.0000e+00 -1.0000e+00
       21 -1    0    0  501  502 -0.0000000000e+00 -0.0000000000e+00 -1.6897249472e+01 1.6897249472e+01 0.0000000000e+00 0.0000e+00 -1.0000e+00
       25  2    1    2    0    0 +0.0000000000e+00 +0.0000000000e+00 +2.1427942851e+02 2.4807392746e+02 1.2500000000e+02 0.0000e+00 0.0000e+00
      -15  1    3    3    0    0 -2.1901792474e+01 +3.8766912867e+01 +1.7972427804e+02 1.8516623854e+02 1.7770000000e+00 0.0000e+00 -1.0000e+00
       15  1    3    3    0    0 +2.4904126886e+01 -3.7715122133e+01 +2.2650024887e+01 5.0584852771e+01 1.7770000000e+00 0.0000e+00 -1.0000e+00
       22  1    3    3    0    0 -3.0023344123e+00 -1.0517907344e+00 +1.1905125560e+01 1.2322836129e+01 0.0000000000e+00 0.0000e+00 1.0000e+00
<mgrwt>
<rscale>  2 0.12500000E+03</rscale>
<asrwt>0</asrwt>
<pdfrwt beam="1">  1       21 0.33996568E-01 0.12500000E+03</pdfrwt>
<pdfrwt beam="2">  1       21 0.24848898E-02 0.12500000E+03</pdfrwt>
<totfact> 0.70251404E+06</totfact>
</mgrwt>
</event>
<event>
 6      0 +4.1053447e-01 1.25000000e+02 7.54677100e-03 1.12640300e-01
       21 -1    0    0  502  501 +0.0000000000e+00 +0.0000000000e+00 +3.4058807916e+02 3.4058807916e+02 0.0000000000e+00 0.0000e+00 -1.0000e+00
       21 -1    0    0  501  502 -0.0000000000e+00 -0.0000000000e+00 -1.1469133064e+01 1.1469133064e+01 0.0000000000e+00 0.0000e+00 -1.0000e+00
       25  2    1    2    0    0 +0.0000000000e+00 +0.0000000000e+00 +3.2911894610e+02 3.5205721223e+02 1.2500000000e+02 0.0000e+00 0.0000e+00
      -15  1    3    3    0    0 +3.6641476326e+01 -3.8229958515e+01 +2.5783713268e+02 2.6322475612e+02 1.7770000000e+00 0.0000e+00 -1.0000e+00
       15  1    3    3    0    0 -3.6648285869e+01 +3.8234627681e+01 +7.1229022088e+01 8.8779023016e+01 1.7770000000e+00 0.0000e+00 -1.0000e+00
       22  1    3    3    0    0 +6.8095431367e-03 -4.6691658336e-03 +5.2791316738e-02 5.3433080673e-02 0.0000000000e+00 0.0000e+00 1.0000e+00
<mgrwt>
<rscale>  2 0.12500000E+03</rscale>
<asrwt>0</asrwt>
<pdfrwt beam="1">  1       21 0.50086476E-01 0.12500000E+03</pdfrwt>
<pdfrwt beam="2">  1       21 0.16866374E-02 0.12500000E+03</pdfrwt>
<totfact> 0.58318646E+06</totfact>
</mgrwt>
</event>
<event>
 6      0 +4.1053447e-01 1.25000000e+02 7.54677100e-03 1.12640300e-01
       21 -1    0    0  502  501 +0.0000000000e+00 +0.0000000000e+00 +4.4038851971e+01 4.4038851971e+01 0.0000000000e+00 0.0000e+00 1.0000e+00
       21 -1    0    0  501  502 -0.0000000000e+00 -0.0000000000e+00 -8.8700086972e+01 8.8700086972e+01 0.0000000000e+00 0.0000e+00 1.0000e+00
       25  2    1    2    0    0 +0.0000000000e+00 +0.0000000000e+00 -4.4661235001e+01 1.3273893894e+02 1.2500000000e+02 0.0000e+00 0.0000e+00
      -15  1    3    3    0    0 +4.5387379897e+01 +3.6678965994e+01 -4.6021628500e+01 7.4340492459e+01 1.7770000000e+00 0.0000e+00 1.0000e+00
       15  1    3    3    0    0 -4.5386766684e+01 -3.6678540026e+01 +1.3607239558e+00 5.8397629978e+01 1.7770000000e+00 0.0000e+00 1.0000e+00
       22  1    3    3    0    0 -6.1321367319e-04 -4.2596813677e-04 -3.3045847993e-04 8.1650638056e-04 0.0000000000e+00 0.0000e+00 1.0000e+00
<mgrwt>
<rscale>  2 0.12500000E+03</rscale>
<asrwt>0</asrwt>
<pdfrwt beam="1">  1       21 0.64763018E-02 0.12500000E+03</pdfrwt>
<pdfrwt beam="2">  1       21 0.13044130E-01 0.12500000E+03</pdfrwt>
<totfact> 0.87604422E+06</totfact>
</mgrwt>
</event>
<event>
 6      0 +4.1053447e-01 1.25000000e+02 7.54677100e-03 1.12640300e-01
       21 -1    0    0  502  501 +0.0000000000e+00 +0.0000000000e+00 +3.4333745614e+01 3.4333745614e+01 0.0000000000e+00 0.0000e+00 1.0000e+00
       21 -1    0    0  501  502 -0.0000000000e+00 -0.0000000000e+00 -1.1377290564e+02 1.1377290564e+02 0.0000000000e+00 0.0000e+00 1.0000e+00
       25  2    1    2    0    0 +0.0000000000e+00 +0.0000000000e+00 -7.9439160028e+01 1.4810665125e+02 1.2500000000e+02 0.0000e+00 0.0000e+00
      -15  1    3    3    0    0 -1.1882137328e+01 +5.1457520340e+01 -1.7261807599e-01 5.2841736469e+01 1.7770000000e+00 0.0000e+00 1.0000e+00
       15  1    3    3    0    0 +1.1882137327e+01 -5.1457520339e+01 -7.9266541955e+01 9.5264914787e+01 1.7770000000e+00 0.0000e+00 1.0000e+00
       22  1    3    3    0    0 +1.1573123972e-09 -5.4903064130e-10 -1.0675702666e-09 1.6674870027e-09 0.0000000000e+00 0.0000e+00 1.0000e+00
<mgrwt>
<rscale>  2 0.12500000E+03</rscale>
<asrwt>0</asrwt>
<pdfrwt beam="1">  1       21 0.50490803E-02 0.12500000E+03</pdfrwt>
<pdfrwt beam="2">  1       21 0.16731309E-01 0.12500000E+03</pdfrwt>
<totfact> 0.84944384E+06</totfact>
</mgrwt>
</event>
<event>
 6      0 +4.1053447e-01 1.25000000e+02 7.54677100e-03 1.12640300e-01
       21 -1    0    0  502  501 +0.0000000000e+00 +0.0000000000e+00 +3.5748760372e+01 3.5748760372e+01 0.0000000000e+00 0.0000e+00 -1.0000e+00
       21 -1    0    0  501  502 -0.0000000000e+00 -0.0000000000e+00 -1.0926952318e+02 1.0926952318e+02 0.0000000000e+00 0.0000e+00 -1.0000e+00
       25  2    1    2    0    0 +0.0000000000e+00 +0.0000000000e+00 -7.3520762806e+01 1.4501828355e+02 1.2500000000e+02 0.0000e+00 0.0000e+00
      -15  1    3    3    0    0 +2.4890950013e+01 -2.3901742639e+01 -9.7165696228e+01 1.0312702336e+02 1.7770000000e+00 0.0000e+00 -1.0000e+00
       15  1    3    3    0    0 -2.4893992200e+01 +2.3904586077e+01 +2.3655864856e+01 4.1879562489e+01 1.7770000000e+00 0.0000e+00 -1.0000e+00
       22  1    3    3    0    0 +3.0421860717e-03 -2.8434378196e-03 -1.0931433172e-02 1.1697703447e-02 0.0000000000e+00 0.0000e+00 -1.0000e+00
<mgrwt>
<rscale>  2 0.12500000E+03</rscale>
<asrwt>0</asrwt>
<pdfrwt beam="1">  1       21 0.52571706E-02 0.12500000E+03</pdfrwt>
<pdfrwt beam="2">  1       21 0.16069048E-01 0.12500000E+03</pdfrwt>
<totfact> 0.85471113E+06</totfact>
</mgrwt>
</event>
<event>
 6      0 +4.1053447e-01 1.25000000e+02 7.54677100e-03 1.12640300e-01
       21 -1    0    0  502  501 +0.0000000000e+00 +0.0000000000e+00 +2.0435591875e+01 2.0435591875e+01 0.0000000000e+00 0.0000e+00 1.0000e+00
       21 -1    0    0  501  502 -0.0000000000e+00 -0.0000000000e+00 -1.9114934492e+02 1.9114934492e+02 0.0000000000e+00 0.0000e+00 1.0000e+00
       25  2    1    2    0    0 +0.0000000000e+00 +0.0000000000e+00 -1.7071375304e+02 2.1158493679e+02 1.2500000000e+02 0.0000e+00 0.0000e+00
      -15  1    3    3    0    0 +5.6261865981e+01 -1.4152288911e+01 -1.2459607536e+02 1.3745189911e+02 1.7770000000e+00 0.0000e+00 -1.0000e+00
       15  1    3    3    0    0 -5.6261954272e+01 +1.4152342037e+01 -4.6117530315e+01 7.4132857864e+01 1.7770000000e+00 0.0000e+00 -1.0000e+00
       22  1    3    3    0    0 +8.8291427193e-05 -5.3126101755e-05 -1.4736920710e-04 1.7982058281e-04 0.0000000000e+00 0.0000e+00 1.0000e+00
<mgrwt>
<rscale>  2 0.12500000E+03</rscale>
<asrwt>0</asrwt>
<pdfrwt beam="1">  1       21 0.30052343E-02 0.12500000E+03</pdfrwt>
<pdfrwt beam="2">  1       21 0.28110196E-01 0.12500000E+03</pdfrwt>
<totfact> 0.75161151E+06</totfact>
</mgrwt>
</event>
<event>
 6      0 +4.1053447e-01 1.25000000e+02 7.54677100e-03 1.12640300e-01
       21 -1    0    0  502  501 +0.0000000000e+00 +0.0000000000e+00 +1.8180820177e+01 1.8180820177e+01 0.0000000000e+00 0.0000e+00 -1.0000e+00
       21 -1    0    0  501  502 -0.0000000000e+00 -0.0000000000e+00 -2.1485554348e+02 2.1485554348e+02 0.0000000000e+00 0.0000e+00 -1.0000e+00
       25  2    1    2    0    0 +0.0000000000e+00 +0.0000000000e+00 -1.9667472330e+02 2.3303636366e+02 1.2500000000e+02 0.0000e+00 0.0000e+00
      -15  1    3    3    0    0 -4.3683302621e+01 +2.6459852438e+01 -3.8601854120e+01 6.4043856765e+01 1.7770000000e+00 0.0000e+00 1.0000e+00
       15  1    3    3    0    0 +3.9589812321e+01 -7.4646168622e+00 -1.0754090758e+02 1.1485329023e+02 1.7770000000e+00 0.0000e+00 1.0000e+00
       22  1    3    3    0    0 +4.0934903007e+00 -1.8995235576e+01 -5.0531961586e+01 5.4139216647e+01 0.0000000000e+00 0.0000e+00 1.0000e+00
<mgrwt>
<rscale>  2 0.12500000E+03</rscale>
<asrwt>0</asrwt>
<pdfrwt beam="1">  1       21 0.26736499E-02 0.12500000E+03</pdfrwt>
<pdfrwt beam="2">  1       21 0.31596405E-01 0.12500000E+03</pdfrwt>
<totfact> 0.72231032E+06</totfact>
</mgrwt>
</event>
<event>
 6      0 +4.1053447e-01 1.25000000e+02 7.54677100e-03 1.12640300e-01
       21 -1    0    0  502  501 +0.0000000000e+00 +0.0000000000e+00 +2.9541919866e+02 2.9541919866e+02 0.0000000000e+00 0.0000e+00 -1.0000e+00
       21 -1    0    0  501  502 -0.0000000000e+00 -0.0000000000e+00 -1.3222735752e+01 1.3222735752e+01 0.0000000000e+00 0.0000e+00 -1.0000e+00
       25  2    1    2    0    0 +0.0000000000e+00 +0.0000000000e+00 +2.8219646291e+02 3.0864193442e+02 1.2500000000e+02 0.0000e+00 0.0000e+00
      -15  1    3    3    0    0 +3.9526777173e+01 -3.8635352194e+01 +2.1300205606e+02 2.2006383203e+02 1.7770000000e+00 0.0000e+00 -1.0000e+00
       15  1    3    3    0    0 -3.9526776754e+01 +3.8635351744e+01 +6.9194406056e+01 8.8578101376e+01 1.7770000000e+00 0.0000e+00 -1.0000e+00
       22  1    3    3    0    0 -4.1873078112e-07 +4.5044319840e-07 +7.6432048159e-07 9.8103024450e-07 0.0000000000e+00 0.0000e+00 -1.0000e+00
<mgrwt>
<rscale>  2 0.12500000E+03</rscale>
<asrwt>0</asrwt>
<pdfrwt beam="1">  1       21 0.43443996E-01 0.12500000E+03</pdfrwt>
<pdfrwt beam="2">  1       21 0.19445201E-02 0.12500000E+03</pdfrwt>
<totfact> 0.62967376E+06</totfact>
</mgrwt>
</event>
<event>
 6      0 +4.1053447e-01 1.25000000e+02 7.54677100e-03 1.12640300e-01
       21 -1    0    0  502  501 +0.0000000000e+00 +0.0000000000e+00 +2.5171990824e+02 2.5171990824e+02 0.0000000000e+00 0.0000e+00 -1.0000e+00
       21 -1    0    0  501  502 -0.0000000000e+00 -0.0000000000e+00 -1.5518240203e+01 1.5518240203e+01 0.0000000000e+00 0.0000e+00 -1.0000e+00
       25  2    1    2    0    0 +0.0000000000e+00 +0.0000000000e+00 +2.3620166804e+02 2.6723814844e+02 1.2500000000e+02 0.0000e+00 0.0000e+00
      -15  1    3    3    0    0 +9.0214250634e+00 -5.4629183903e+01 +1.7996570840e+02 1.8829909127e+02 1.7770000000e+00 0.0000e+00 1.0000e+00
       15  1    3    3    0    0 -9.0214251077e+00 +5.4629183912e+01 +5.6235959300e+01 7.8939056830e+01 1.7770000000e+00 0.0000e+00 1.0000e+00
       22  1    3    3    0    0 +4.4270420028e-08 -9.1807116656e-09 +3.6286679368e-07 3.6567262068e-07 0.0000000000e+00 0.0000e+00 -1.0000e+00
<mgrwt>
<rscale>  2 0.12500000E+03</rscale>
<asrwt>0</asrwt>
<pdfrwt beam="1">  1       21 0.37017631E-01 0.12500000E+03</pdfrwt>
<pdfrwt beam="2">  1       21 0.22820943E-02 0.12500000E+03</pdfrwt>
<totfact> 0.67836733E+06</totfact>
</mgrwt>
</event>
<event>
 6      0 +4.1053447e-01 1.25000000e+02 7.54677100e-03 1.12640300e-01
       21 -1    0    0  502  501 +0.0000000000e+00 +0.0000000000e+00 +5.0661802018e+02 5.0661802018e+02 0.0000000000e+00 0.0000e+00 1.0000e+00
       21 -1    0    0  501  502 -0.0000000000e+00 -0.0000000000e+00 -7.7104442487e+00 7.7104442487e+00 0.0000000000e+00 0.0000e+00 1.0000e+00
       25  2    1    2    0    0 +0.0000000000e+00 +0.0000000000e+00 +4.9890757593e+02 5.1432846443e+02 1.2500000000e+02 0.0000e+00 0.0000e+00
      -15  1    3    3    0    0 +1.9693494447e+00 -5.3618752966e+01 +1.1778015344e+02 1.2943790511e+02 1.7770000000e+00 0.0000e+00 1.0000e+00
       15  1    3    3    0    0 -1.9911157660e+00 +5.3540265163e+01 +3.8066376036e+02 3.8441979750e+02 1.7770000000e+00 0.0000e+00 1.0000e+00
       22  1    3    3    0    0 +2.1766321393e-02 +7.8487803098e-02 +4.6366208806e-01 4.7076176553e-01 0.0000000000e+00 0.0000e+00 1.0000e+00
<mgrwt>
<rscale>  2 0.12500000E+03</rscale>
<asrwt>0</asrwt>
<pdfrwt beam="1">  1       21 0.74502628E-01 0.12500000E+03</pdfrwt>
<pdfrwt beam="2">  1       21 0.11338892E-02 0.12500000E+03</pdfrwt>
<totfact> 0.44277294E+06</totfact>
</mgrwt>
</event>
<event>
 6      0 +4.1053447e-01 1.25000000e+02 7.54677100e-03 1.12640300e-01
       21 -1    0    0  502  501 +0.0000000000e+00 +0.0000000000e+00 +8.0021069612e+01 8.0021069612e+01 0.0000000000e+00 0.0000e+00 -1.0000e+00
       21 -1    0    0  501  502 -0.0000000000e+00 -0.0000000000e+00 -4.8815268515e+01 4.8815268515e+01 0.0000000000e+00 0.0000e+00 -1.0000e+00
       25  2    1    2    0    0 +0.0000000000e+00 +0.0000000000e+00 +3.1205801097e+01 1.2883633813e+02 1.2500000000e+02 0.0000e+00 0.0000e+00
      -15  1    3    3    0    0 -2.4726146555e+01 +1.4109356793e+01 -3.9841873985e+01 4.8999886982e+01 1.7770000000e+00 0.0000e+00 1.0000e+00
       15  1    3    3    0    0 +2.4633882561e+01 -1.4122500904e+01 +7.2758456546e+01 7.8123133127e+01 1.7770000000e+00 0.0000e+00 1.0000e+00
       22  1    3    3    0    0 +9.2263993962e-02 +1.3144110598e-02 -1.7107814641e+00 1.7133180178e+00 0.0000000000e+00 0.0000e+00 1.0000e+00
<mgrwt>
<rscale>  2 0.12500000E+03</rscale>
<asrwt>0</asrwt>
<pdfrwt beam="1">  1       21 0.11767804E-01 0.12500000E+03</pdfrwt>
<pdfrwt beam="2">  1       21 0.71787159E-02 0.12500000E+03</pdfrwt>
<totfact> 0.88308751E+06</totfact>
</mgrwt>
</event>
<event>
 6      0 +4.1053447e-01 1.25000000e+02 7.54677100e-03 1.12640300e-01
       21 -1    0    0  502  501 +0.0000000000e+00 +0.0000000000e+00 +3.7339234876e+01 3.7339234876e+01 0.0000000000e+00 0.0000e+00 1.0000e+00
       21 -1    0    0  501  502 -0.0000000000e+00 -0.0000000000e+00 -1.0461515917e+02 1.0461515917e+02 0.0000000000e+00 0.0000e+00 1.0000e+00
       25  2    1    2    0    0 +0.0000000000e+00 +0.0000000000e+00 -6.7275924299e+01 1.4195439405e+02 1.2500000000e+02 0.0000e+00 0.0000e+00
      -15  1    3    3    0    0 -5.5748915464e+01 +2.7907473060e+01 -3.7867818479e+01 7.2965046655e+01 1.7770000000e+00 0.0000e+00 -1.0000e+00
       15  1    3    3    0    0 +5.5748525827e+01 -2.7934044730e+01 -2.9393209015e+01 6.8958882329e+01 1.7770000000e+00 0.0000e+00 -1.0000e+00
       22  1    3    3    0    0 +3.8963645948e-04 +2.6571670308e-02 -1.4896804610e-02 3.0465066341e-02 0.0000000000e+00 0.0000e+00 -1.0000e+00
<mgrwt>
<rscale>  2 0.12500000E+03</rscale>
<asrwt>0</asrwt>
<pdfrwt beam="1">  1       21 0.54910640E-02 0.12500000E+03</pdfrwt>
<pdfrwt beam="2">  1       21 0.15384582E-01 0.12500000E+03</pdfrwt>
<totfact> 0.86001771E+06</totfact>
</mgrwt>
</event>
<event>
 6      0 +4.1053447e-01 1.25000000e+02 7.54677100e-03 1.12640300e-01
       21 -1    0    0  502  501 +0.0000000000e+00 +0.0000000000e+00 +5.3777877486e+00 5.3777877486e+00 0.0000000000e+00 0.0000e+00 -1.0000e+00
       21 -1    0    0  501  502 -0.0000000000e+00 -0.0000000000e+00 -7.2636745490e+02 7.2636745490e+02 0.0000000000e+00 0.0000e+00 -1.0000e+00
       25  2    1    2    0    0 +0.0000000000e+00 +0.0000000000e+00 -7.2098966716e+02 7.3174524265e+02 1.2500000000e+02 0.0000e+00 0.0000e+00
      -15  1    3    3    0    0 -2.8641423360e+01 +3.4661052736e+01 -1.0658045338e+02 1.1569040790e+02 1.7770000000e+00 0.0000e+00 1.0000e+00
       15  1    3    3    0    0 +2.8641423368e+01 -3.4661052761e+01 -6.1440921390e+02 6.1605483487e+02 1.7770000000e+00 0.0000e+00 1.0000e+00
       22  1    3    3    0    0 -8.1161647854e-09 +2.4528666918e-08 -1.2873189270e-07 1.3129900163e-07 0.0000000000e+00 0.0000e+00 1.0000e+00
<mgrwt>
<rscale>  2 0.12500000E+03</rscale>
<asrwt>0</asrwt>
<pdfrwt beam="1">  1       21 0.79085180E-03 0.12500000E+03</pdfrwt>
<pdfrwt beam="2">  1       21 0.10681865E+00 0.12500000E+03</pdfrwt>
<totfact> 0.31350960E+06</totfact>
</mgrwt>
</event>
<event>
 6      0 +4.1053447e-01 1.25000000e+02 7.54677100e-03 1.12640300e-01
       21 -1    0    0  502  501 +0.0000000000e+00 +0.0000000000e+00 +1.5164231461e+01 1.5164231461e+01 0.0000000000e+00 0.0000e+00 -1.0000e+00
       21 -1    0    0  501  502 -0.0000000000e+00 -0.0000000000e+00 -2.5759630549e+02 2.5759630549e+02 0.0000000000e+00 0.0000e+00 -1.0000e+00
       25  2    1    2    0    0 +0.0000000000e+00 +0.0000000000e+00 -2.4243207403e+02 2.7276053696e+02 1.2500000000e+02 0.0000e+00 0.0000e+00
      -15  1    3    3    0    0 -4.5265923259e+01 +1.8608198858e+01 -2.0590529573e+02 2.1164927926e+02 1.7770000000e+00 0.0000e+00 -1.0000e+00
       15  1    3    3    0    0 +4.5231733289e+01 -1.8587666800e+01 -3.6427767010e+01 6.1004516159e+01 1.7770000000e+00 0.0000e+00 -1.0000e+00
       22  1    3    3    0    0 +3.4189969410e-02 -2.0532058408e-02 -9.9011260482e-02 1.0674150614e-01 0.0000000000e+00 0.0000e+00 1.0000e+00
<mgrwt>
<rscale>  2 0.12500000E+03</rscale>
<asrwt>0</asrwt>
<pdfrwt beam="1">  1       21 0.22300339E-02 0.12500000E+03</pdfrwt>
<pdfrwt beam="2">  1       21 0.37881812E-01 0.12500000E+03</pdfrwt>
<totfact> 0.67162318E+06</totfact>
</mgrwt>
</event>
<event>
 6      0 +4.1053447e-01 1.25000000e+02 7.54677100e-03 1.12640300e-01
       21 -1    0    0  502  501 +0.0000000000e+00 +0.0000000000e+00 +2.9347597390e+02 2.9347597390e+02 0.0000000000e+00 0.0000e+00 1.0000e+00
       21 -1    0    0  501  502 -0.0000000000e+00 -0.0000000000e+00 -1.3310288908e+01 1.3310288908e+01 0.0000000000e+00 0.0000e+00 1.0000e+00
       25  2    1    2    0    0 +0.0000000000e+00 +0.0000000000e+00 +2.8016568499e+02 3.0678626281e+02 1.2500000000e+02 0.0000e+00 0.0000e+00
      -15  1    3    3    0    0 -6.0616060897e+01 -7.5156680111e+00 +1.0786724583e+02 1.2397295091e+02 1.7770000000e+00 0.0000e+00 1.0000e+00
       15  1    3    3    0    0 +6.0593590318e+01 +7.5130641634e+00 +1.7223810803e+02 1.8274887936e+02 1.7770000000e+00 0.0000e+00 1.0000e+00
       22  1    3    3    0    0 +2.2470578705e-02 +2.6038477096e-03 +6.0331097412e-02 6.4432509226e-02 0.0000000000e+00 0.0000e+00 1.0000e+00
<mgrwt>
<rscale>  2 0.12500000E+03</rscale>
<asrwt>0</asrwt>
<pdfrwt beam="1">  1       21 0.43158227E-01 0.12500000E+03</pdfrwt>
<pdfrwt beam="2">  1       21 0.19573956E-02 0.12500000E+03</pdfrwt>
<totfact> 0.63176673E+06</totfact>
</mgrwt>
</event>
<event>
 6      0 +4.1053447e-01 1.25000000e+02 7.54677100e-03 1.12640300e-01
       21 -1    0    0  502  501 +0.0000000000e+00 +0.0000000000e+00 +1.2616107941e+02 1.2616107941e+02 0.0000000000e+00 0.0000e+00 -1.0000e+00
       21 -1    0    0  501  502 -0.0000000000e+00 -0.0000000000e+00 -3.0962401545e+01 3.0962401545e+01 0.0000000000e+00 0.0000e+00 -1.0000e+00
       25  2    1    2    0    0 +0.0000000000e+00 +0.0000000000e+00 +9.5198677863e+01 1.5712348095e+02 1.2500000000e+02 0.0000e+00 0.0000e+00
      -15  1    3    3    0    0 +1.5579659982e+01 +6.1449315093e+00 +1.2325487689e+02 1.2440019451e+02 1.7770000000e+00 0.0000e+00 1.0000e+00
       15  1    3    3    0    0 -1.5579687689e+01 -6.1449452141e+00 -2.8056348880e+01 3.2723133432e+01 1.7770000000e+00 0.0000e+00 1.0000e+00
       22  1    3    3    0    0 +2.7707745055e-05 +1.3704882936e-05 +1.4985954367e-04 1.5301446265e-04 0.0000000000e+00 0.0000e+00 -1.0000e+00
<mgrwt>
<rscale>  2 0.12500000E+03</rscale>
<asrwt>0</asrwt>
<pdfrwt beam="1">  1       21 0.18553100E-01 0.12500000E+03</pdfrwt>
<pdfrwt beam="2">  1       21 0.45532944E-02 0.12500000E+03</pdfrwt>
<totfact> 0.83447562E+06</totfact>
</mgrwt>
</event>
<event>
 6      0 +4.1053447e-01 1.25000000e+02 7.54677100e-03 1.12640300e-01
       21 -1    0    0  502  501 +0.0000000000e+00 +0.0000000000e+00 +3.5431843953e+01 3.5431843953e+01 0.0000000000e+00 0.0000e+00 1.0000e+00
       21 -1    0    0  501  502 -0.0000000000e+00 -0.0000000000e+00 -1.1024687299e+02 1.1024687299e+02 0.0000000000e+00 0.0000e+00 1.0000e+00
       25  2    1    2    0    0 +0.0000000000e+00 +0.0000000000e+00 -7.4815029035e+01 1.4567871694e+02 1.2500000000e+02 0.0000e+00 0.0000e+00
      -15  1    3    3    0    0 +5.8101623472e+01 -1.2607555114e+01 -1.5045744387e+01 6.1353738674e+01 1.7770000000e+00 0.0000e+00 1.0000e+00
       15  1    3    3    0    0 -5.4347230616e+01 +1.1796248432e+01 -5.6067645880e+01 7.8990579161e+01 1.7770000000e+00 0.0000e+00 1.0000e+00
       22  1    3    3    0    0 -3.7543928563e+00 +8.1130668237e-01 -3.7016387690e+00 5.3343991067e+00 0.0000000000e+00 0.0000e+00 1.0000e+00
<mgrwt>
<rscale>  2 0.12500000E+03</rscale>
<asrwt>0</asrwt>
<pdfrwt beam="1">  1       21 0.52105653E-02 0.12500000E+03</pdfrwt>
<pdfrwt beam="2">  1       21 0.16212775E-01 0.12500000E+03</pdfrwt>
<totfact> 0.85357751E+06</totfact>
</mgrwt>
</event>
<event>
 6      0 +4.1053447e-01 1.25000000e+02 7.54677100e-03 1.12640300e-01
       21 -1    0    0  502  501 +0.0000000000e+00 +0.0000000000e+00 +2.7313628364e+01 2.7313628364e+01 0.0000000000e+00 0.0000e+00 -1.0000e+00
       21 -1    0    0  501  502 -0.0000000000e+00 -0.0000000000e+00 -1.4301468659e+02 1.4301468659e+02 0.0000000000e+00 0.0000e+00 -1.0000e+00
       25  2    1    2    0    0 +0.0000000000e+00 +0.0000000000e+00 -1.1570105822e+02 1.7032831495e+02 1.2500000000e+02 0.0000e+00 0.0000e+00
      -15  1    3    3    0    0 +5.6724398893e+00 +2.8202708684e+01 -1.3340291499e+02 1.3648100530e+02 1.7770000000e+00 0.0000e+00 -1.0000e+00
       15  1    3    3    0    0 -5.6786432341e+00 -2.8203451530e+01 +1.7714946426e+01 3.3832805428e+01 1.7770000000e+00 0.0000e+00 -1.0000e+00
       22  1    3    3    0    0 +6.2033447895e-03 +7.4284670581e-04 -1.3089652295e-02 1.4504216801e-02 0.0000000000e+00 0.0000e+00 1.0000e+00
<mgrwt>
<rscale>  2 0.12500000E+03</rscale>
<asrwt>0</asrwt>
<pdfrwt beam="1">  1       21 0.40167101E-02 0.12500000E+03</pdfrwt>
<pdfrwt beam="2">  1       21 0.21031571E-01 0.12500000E+03</pdfrwt>
<totfact> 0.81312121E+06</totfact>
</mgrwt>
</event>
<event>
 6      0 +4.1053447e-01 1.25000000e+02 7.54677100e-03 1.12640300e-01
       21 -1    0    0  502  501 +0.0000000000e+00 +0.0000000000e+00 +1.4201214417e+02 1.4201214417e+02 0.0000000000e+00 0.0000e+00 1.0000e+00
       21 -1    0    0  501  502 -0.0000000000e+00 -0.0000000000e+00 -2.7506450400e+01 2.7506450400e+01 0.0000000000e+00 0.0000e+00 1.0000e+00
       25  2    1    2    0    0 +0.0000000000e+00 +0.0000000000e+00 +1.1450569377e+02 1.6951859458e+02 1.2500000000e+02 0.0000e+00 0.0000e+00
      -15  1    3    3    0    0 -5.9618757727e+01 +1.6320730750e+01 +6.9557963018e+01 9.3071104395e+01 1.7770000000e+00 0.0000e+00 1.0000e+00
       15  1    3    3    0    0 +5.9618757724e+01 -1.6320730744e+01 +4.4947730729e+01 7.6447490156e+01 1.7770000000e+00 0.0000e+00 1.0000e+00
       22  1    3    3    0    0 +2.9583880255e-09 -5.8740029849e-09 +1.2556585278e-08 1.4174759420e-08 0.0000000000e+00 0.0000e+00 1.0000e+00
<mgrwt>
<rscale>  2 0.12500000E+03</rscale>
<asrwt>0</asrwt>
<pdfrwt beam="1">  1       21 0.20884139E-01 0.12500000E+03</pdfrwt>
<pdfrwt beam="2">  1       21 0.40450663E-02 0.12500000E+03</pdfrwt>
<totfact> 0.81440697E+06</totfact>
</mgrwt>
</event>
<event>
 6      0 +4.1053447e-01 1.25000000e+02 7.54677100e-03 1.12640300e-01
       21 -1    0    0  502  501 +0.0000000000e+00 +0.0000000000e+00 +1.2456578116e+02 1.2456578116e+02 0.0000000000e+00 0.0000e+00 -1.0000e+00
       21 -1    0    0  501  502 -0.0000000000e+00 -0.0000000000e+00 -3.1358933115e+01 3.1358933115e+01 0.0000000000e+00 0.0000e+00 -1.0000e+00
       25  2    1    2    0    0 +0.0000000000e+00 +0.0000000000e+00 +9.3206848049e+01 1.5592471428e+02 1.2500000000e+02 0.0000e+00 0.0000e+00
      -15  1    3    3    0    0 +2.6278084027e+01 +2.9150969953e+01 +1.0718412709e+02 1.1415739827e+02 1.7770000000e+00 0.0000e+00 1.0000e+00
       15  1    3    3    0    0 -2.6288563907e+01 -2.9176668334e+01 -1.3999870016e+01 4.1731530727e+01 1.7770000000e+00 0.0000e+00 1.0000e+00
       22  1    3    3    0    0 +1.0479880029e-02 +2.5698380817e-02 +2.2590972617e-02 3.5785286164e-02 0.0000000000e+00 0.0000e+00 -1.0000e+00
<mgrwt>
<rscale>  2 0.12500000E+03</rscale>
<asrwt>0</asrwt>
<pdfrwt beam="1">  1       21 0.18318497E-01 0.12500000E+03</pdfrwt>
<pdfrwt beam="2">  1       21 0.46116079E-02 0.12500000E+03</pdfrwt>
<totfact> 0.83643636E+06</totfact>
</mgrwt>
</event>
<event>
 6      0 +4.1053447e-01 1.25000000e+02 7.54677100e-03 1.12640300e-01
       21 -1    0    0  502  501 +0.0000000000e+00 +0.0000000000e+00 +1.9380976306e+02 1.9380976306e+02 0.0000000000e+00 0.0000e+00 -1.0000e+00
       21 -1    0    0  501  502 -0.0000000000e+00 -0.0000000000e+00 -2.0155073399e+01 2.0155073399e+01 0.0000000000e+00 0.0000e+00 -1.0000e+00
       25  2    1    2    0    0 +0.0000000000e+00 +0.0000000000e+00 +1.7365468966e+02 2.1396483646e+02 1.2500000000e+02 0.0000e+00 0.0000e+00
      -15  1    3    3    0    0 +5.8695974197e+01 +9.4437119985e+00 +5.3960064309e+01 8.0307206105e+01 1.7770000000e+00 0.0000e+00 -1.0000e+00
       15  1    3    3    0    0 -5.8695973953e+01 -9.4437118961e+00 +1.1969462492e+02 1.3365762985e+02 1.7770000000e+00 0.0000e+00 -1.0000e+00
       22  1    3    3    0    0 -2.4431789653e-07 -1.0245866372e-07 +4.2409265388e-07 5.0004358951e-07 0.0000000000e+00 0.0000e+00 -1.0000e+00
<mgrwt>
<rscale>  2 0.12500000E+03</rscale>
<asrwt>0</asrwt>
<pdfrwt beam="1">  1       21 0.28501435E-01 0.12500000E+03</pdfrwt>
<pdfrwt beam="2">  1       21 0.29639815E-02 0.12500000E+03</pdfrwt>
<totfact> 0.74828024E+06</totfact>
</mgrwt>
</event>
<event>
 6      0 +4.1053447e-01 1.25000000e+02 7.54677100e-03 1.12640300e-01
       21 -1    0    0  502  501 +0.0000000000e+00 +0.0000000000e+00 +6.3474662059e+01 6.3474662059e+01 0.0000000000e+00 0.0000e+00 -1.0000e+00
       21 -1    0    0  501  502 -0.0000000000e+00 -0.0000000000e+00 -6.1540304009e+01 6.1540304009e+01 0.0000000000e+00 0.0000e+00 -1.0000e+00
       25  2    1    2    0    0 +0.0000000000e+00 +0.0000000000e+00 +1.9343580505e+00 1.2501496607e+02 1.2500000000e+02 0.0000e+00 0.0000e+00
      -15  1    3    3    0    0 +1.8984135247e+01 -2.2383023462e+01 +5.5389995590e+01 6.2710497293e+01 1.7770000000e+00 0.0000e+00 -1.0000e+00
       15  1    3    3    0    0 -1.9410114156e+01 +2.2570907446e+01 -5.3938482483e+01 6.1633724664e+01 1.7770000000e+00 0.0000e+00 -1.0000e+00
       22  1    3    3    0    0 +4.2597890829e-01 -1.8788398436e-01 +4.8284494415e-01 6.7074411065e-01 0.0000000000e+00 0.0000e+00 1.0000e+00
<mgrwt>
<rscale>  2 0.12500000E+03</rscale>
<asrwt>0</asrwt>
<pdfrwt beam="1">  1       21 0.93345091E-02 0.12500000E+03</pdfrwt>
<pdfrwt beam="2">  1       21 0.90500447E-02 0.12500000E+03</pdfrwt>
<totfact> 0.88999089E+06</totfact>
</mgrwt>
</event>
<event>
 6      0 +4.1053447e-01 1.25000000e+02 7.54677100e-03 1.12640300e-01
       21 -1    0    0  502  501 +0.0000000000e+00 +0.0000000000e+00 +9.2291526921e+00 9.2291526921e+00 0.0000000000e+00 0.0000e+00 -1.0000e+00
       21 -1    0    0  501  502 -0.0000000000e+00 -0.0000000000e+00 -4.2325120521e+02 4.2325120521e+02 0.0000000000e+00 0.0000e+00 -1.0000e+00
       25  2    1    2    0    0 +0.0000000000e+00 +0.0000000000e+00 -4.1402205252e+02 4.3248035790e+02 1.2500000000e+02 0.0000e+00 0.0000e+00
      -15  1    3    3    0    0 +3.5350114537e+01 -1.4092603829e+01 -3.5587763758e+01 5.2133278612e+01 1.7770000000e+00 0.0000e+00 1.0000e+00
       15  1    3    3    0    0 -3.5350114546e+01 +1.4092603843e+01 -3.7843428878e+02 3.8034707930e+02 1.7770000000e+00 0.0000e+00 1.0000e+00
       22  1    3    3    0    0 +9.5344929321e-09 -1.4750520635e-08 -2.9729161903e-08 3.4529805704e-08 0.0000000000e+00 0.0000e+00 1.0000e+00
<mgrwt>
<rscale>  2 0.12500000E+03</rscale>
<asrwt>0</asrwt>
<pdfrwt beam="1">  1       21 0.13572287E-02 0.12500000E+03</pdfrwt>
<pdfrwt beam="2">  1       21 0.62242809E-01 0.12500000E+03</pdfrwt>
<totfact> 0.50758282E+06</totfact>
</mgrwt>
</event>
<event>
 6      0 +4.1053447e-01 1.25000000e+02 7.54677100e-03 1.12640300e-01
       21 -1    0    0  502  501 +0.0000000000e+00 +0.0000000000e+00 +3.4600993607e+01 3.4600993607e+01 0.0000000000e+00 0.0000e+00 1.0000e+00
       21 -1    0    0  501  502 -0.0000000000e+00 -0.0000000000e+00 -1.1289415687e+02 1.1289415687e+02 0.0000000000e+00 0.0000e+00 1.0000e+00
       25  2    1    2    0    0 +0.0000000000e+00 +0.0000000000e+00 -7.8293163260e+01 1.4749515047e+02 1.2500000000e+02 0.0000e+00 0.0000e+00
      -15  1    3    3    0    0 +5.0415216469e+01 +3.1866832651e+01 -6.1091939489e+01 8.5396556571e+01 1.7770000000e+00 0.0000e+00 -1.0000e+00
       15  1    3    3    0    0 -5.0415237058e+01 -3.1866846541e+01 -1.7201199079e+01 6.2098558879e+01 1.7770000000e+00 0.0000e+00 -1.0000e+00
       22  1    3    3    0    0 +2.0589296431e-05 +1.3890012222e-05 -2.4695405856e-05 3.5024486255e-05 0.0000000000e+00 0.0000e+00 -1.0000e+00
<mgrwt>
<rscale>  2 0.12500000E+03</rscale>
<asrwt>0</asrwt>
<pdfrwt beam="1">  1       21 0.50883815E-02 0.12500000E+03</pdfrwt>
<pdfrwt beam="2">  1       21 0.16602082E-01 0.12500000E+03</pdfrwt>
<totfact> 0.85048014E+06</totfact>
</mgrwt>
</event>
<event>
 6      0 +4.1053447e-01 1.25000000e+02 7.54677100e-03 1.12640300e-01
       21 -1    0    0  502  501 +0.0000000000e+00 +0.0000000000e+00 +1.3697753969e+02 1.3697753969e+02 0.0000000000e+00 0.0000e+00 -1.0000e+00
       21 -1    0    0  501  502 -0.0000000000e+00 -0.0000000000e+00 -2.8517448984e+01 2.8517448984e+01 0.0000000000e+00 0.0000e+00 -1.0000e+00
       25  2    1    2    0    0 +0.0000000000e+00 +0.0000000000e+00 +1.0846009070e+02 1.6549498867e+02 1.2500000000e+02 0.0000e+00 0.0000e+00
      -15  1    3    3    0    0 +7.4607257834e+00 +6.0662554486e+01 +7.1364129029e+01 9.3976617235e+01 1.7770000000e+00 0.0000e+00 -1.0000e+00
       15  1    3    3    0    0 -7.4593744451e+00 -6.0649689567e+01 +3.7088487435e+01 7.1503431672e+01 1.7770000000e+00 0.0000e+00 -1.0000e+00
       22  1    3    3    0    0 -1.3513382263e-03 -1.2864919492e-02 +7.4742354293e-03 1.4939761169e-02 0.0000000000e+00 0.0000e+00 1.0000e+00
<mgrwt>
<rscale>  2 0.12500000E+03</rscale>
<asrwt>0</asrwt>
<pdfrwt beam="1">  1       21 0.20143756E-01 0.12500000E+03</pdfrwt>
<pdfrwt beam="2">  1       21 0.41937426E-02 0.12500000E+03</pdfrwt>
<totfact> 0.82086065E+06</totfact>
</mgrwt>
</event>
<event>
 6      0 +4.1053447e-01 1.25000000e+02 7.54677100e-03 1.12640300e-01
       21 -1    0    0  502  501 +0.0000000000e+00 +0.0000000000e+00 +1.1372135271e+02 1.1372135271e+02 0.0000000000e+00 0.0000e+00 -1.0000e+00
       21 -1    0    0  501  502 -0.0000000000e+00 -0.0000000000e+00 -3.4349310020e+01 3.4349310020e+01 0.0000000000e+00 0.0000e+00 -1.0000e+00
       25  2    1    2    0    0 +0.0000000000e+00 +0.0000000000e+00 +7.9372042686e+01 1.4807066273e+02 1.2500000000e+02 0.0000e+00 0.0000e+00
      -15  1    3    3    0    0 +3.2380821031e+01 -5.2269927471e+01 +2.6580318575e+01 6.7009954135e+01 1.7770000000e+00 0.0000e+00 -1.0000e+00
       15  1    3    3    0    0 -3.2380304640e+01 +5.2268289699e+01 +5.2791491427e+01 8.1058975645e+01 1.7770000000e+00 0.0000e+00 -1.0000e+00
       22  1    3    3    0    0 -5.1639173289e-04 +1.6377725328e-03 +2.3268179617e-04 1.7329455009e-03 0.0000000000e+00 0.0000e+00 -1.0000e+00
<mgrwt>
<rscale>  2 0.12500000E+03</rscale>
<asrwt>0</asrwt>
<pdfrwt beam="1">  1       21 0.16723728E-01 0.12500000E+03</pdfrwt>
<pdfrwt beam="2">  1       21 0.50513692E-02 0.12500000E+03</pdfrwt>
<totfact> 0.84950475E+06</totfact>
</mgrwt>
</event>
<event>
 6      0 +4.1053447e-01 1.25000000e+02 7.54677100e-03 1.12640300e-01
       21 -1    0    0  502  501 +0.0000000000e+00 +0.0000000000e+00 +1.8093304351e+02 1.8093304351e+02 0.0000000000e+00 0.0000e+00 1.0000e+00
       21 -1    0    0  501  502 -0.0000000000e+00 -0.0000000000e+00 -2.1589478209e+01 2.1589478209e+01 0.0000000000e+00 0.0000e+00 1.0000e+00
       25  2    1    2    0    0 +0.0000000000e+00 +0.0000000000e+00 +1.5934356530e+02 2.0252252172e+02 1.2500000000e+02 0.0000e+00 0.0000e+00
      -15  1    3    3    0    0 -2.5055798172e+01 +1.1535654876e+01 +1.6973673760e+02 1.7197262042e+02 1.7770000000e+00 0.0000e+00 -1.0000e+00
       15  1    3    3    0    0 +2.5006344190e+01 -1.1140186138e+01 -1.1214592476e+01 2.9636899472e+01 1.7770000000e+00 0.0000e+00 -1.0000e+00
       22  1    3    3    0    0 +4.9453982588e-02 -3.9546873870e-01 +8.2142016939e-01 9.1300181509e-01 0.0000000000e+00 0.0000e+00 1.0000e+00
<mgrwt>
<rscale>  2 0.12500000E+03</rscale>
<asrwt>0</asrwt>
<pdfrwt beam="1">  1       21 0.26607800E-01 0.12500000E+03</pdfrwt>
<pdfrwt beam="2">  1       21 0.31749234E-02 0.12500000E+03</pdfrwt>
<totfact> 0.76452436E+06</totfact>
</mgrwt>
</event>
<event>
 6      0 +4.1053447e-01 1.25000000e+02 7.54677100e-03 1.12640300e-01
       21 -1    0    0  502  501 +0.0000000000e+00 +0.0000000000e+00 +1.6712074455e+01 1.6712074455e+01 0.0000000000e+00 0.0000e+00 -1.0000e+00
       21 -1    0    0  501  502 -0.0000000000e+00 -0.0000000000e+00 -2.3373818794e+02 2.3373818794e+02 0.0000000000e+00 0.0000e+00 -1.0000e+00
       25  2    1    2    0    0 +0.0000000000e+00 +0.0000000000e+00 -2.1702611349e+02 2.5045026240e+02 1.2500000000e+02 0.0000e+00 0.0000e+00
      -15  1    3    3    0    0 -4.8633812643e+01 -3.4861935668e+01 -1.4449374386e+02 1.5640397065e+02 1.7770000000e+00 0.0000e+00 1.0000e+00
       15  1    3    3    0    0 +4.8633813686e+01 +3.4861936520e+01 -7.2532367330e+01 9.4046289087e+01 1.7770000000e+00 0.0000e+00 1.0000e+00
       22  1    3    3    0    0 -1.0432050221e-06 -8.5268418035e-07 -2.3029417014e-06 2.6681243430e-06 0.0000000000e+00 0.0000e+00 -1.0000e+00
<mgrwt>
<rscale>  2 0.12500000E+03</rscale>
<asrwt>0</asrwt>
<pdfrwt beam="1">  1       21 0.24576583E-02 0.12500000E+03</pdfrwt>
<pdfrwt beam="2">  1       21 0.34373259E-01 0.12500000E+03</pdfrwt>
<totfact> 0.69945308E+06</totfact>
</mgrwt>
</event>
<event>
 6      0 +4.1053447e-01 1.25000000e+02 7.54677100e-03 1.12640300e-01
       21 -1    0    0  502  501 +0.0000000000e+00 +0.0000000000e+00 +5.5303896232e+02 5.5303896232e+02 0.0000000000e+00 0.0000e+00 1.0000e+00
       21 -1    0    0  501  502 -0.0000000000e+00 -0.0000000000e+00 -7.0632455688e+00 7.0632455688e+00 0.0000000000e+00 0.0000e+00 1.0000e+00
       25  2    1    2    0    0 +0.0000000000e+00 +0.0000000000e+00 +5.4597571676e+02 5.6010220789e+02 1.2500000000e+02 0.0000e+00 0.0000e+00
      -15  1    3    3    0    0 -1.5432138758e+01 -5.0832187142e+00 +5.4329305878e+02 5.4353886288e+02 1.7770000000e+00 0.0000e+00 1.0000e+00
       15  1    3    3    0    0 +1.5432138757e+01 +5.0832187138e+00 +2.6826581280e+00 1.6563345156e+01 1.7770000000e+00 0.0000e+00 1.0000e+00
       22  1    3    3    0    0 +9.0304513721e-10 +3.8490723789e-10 +3.6298041662e-10 1.0466130538e-09 0.0000000000e+00 0.0000e+00 -1.0000e+00
<mgrwt>
<rscale>  2 0.12500000E+03</rscale>
<asrwt>0</asrwt>
<pdfrwt beam="1">  1       21 0.81329229E-01 0.12500000E+03</pdfrwt>
<pdfrwt beam="2">  1       21 0.10387130E-02 0.12500000E+03</pdfrwt>
<totfact> 0.41118306E+06</totfact>
</mgrwt>
</event>
<event>
 6      0 +4.1053447e-01 1.25000000e+02 7.54677100e-03 1.12640300e-01
       21 -1    0    0  502  501 +0.0000000000e+00 +0.0000000000e+00 +1.4740443657e+01 1.4740443657e+01 0.0000000000e+00 0.0000e+00 1.0000e+00
       21 -1    0    0  501  502 -0.0000000000e+00 -0.0000000000e+00 -2.6500220012e+02 2.6500220012e+02 0.0000000000e+00 0.0000e+00 1.0000e+00
       25  2    1    2    0    0 +0.0000000000e+00 +0.0000000000e+00 -2.5026175647e+02 2.7974264378e+02 1.2500000000e+02 0.0000e+00 0.0000e+00
      -15  1    3    3    0    0 +7.3673089509e+00 +5.1945149058e+01 -4.9221559941e+01 7.1961763763e+01 1.7770000000e+00 0.0000e+00 -1.0000e+00
       15  1    3    3    0    0 -7.3673089490e+00 -5.1945149060e+01 -2.0104019653e+02 2.0778088002e+02 1.7770000000e+00 0.0000e+00 -1.0000e+00
       22  1    3    3    0    0 -1.8520251293e-09 +2.2232350417e-09 -1.4902879978e-08 1.5181192402e-08 0.0000000000e+00 0.0000e+00 1.0000e+00
<mgrwt>
<rscale>  2 0.12500000E+03</rscale>
<asrwt>0</asrwt>
<pdfrwt beam="1">  1       21 0.21677123E-02 0.12500000E+03</pdfrwt>
<pdfrwt beam="2">  1       21 0.38970911E-01 0.12500000E+03</pdfrwt>
<totfact> 0.66322105E+06</totfact>
</mgrwt>
</event>
<event>
 6      0 +4.1053447e-01 1.25000000e+02 7.54677100e-03 1.12640300e-01
       21 -1    0    0  502  501 +0.0000000000e+00 +0.0000000000e+00 +1.9214685502e+01 1.9214685502e+01 0.0000000000e+00 0.0000e+00 1.0000e+00
       21 -1    0    0  501  502 -0.0000000000e+00 -0.0000000000e+00 -2.0329502659e+02 2.0329502659e+02 0.0000000000e+00 0.0000e+00 1.0000e+00
       25  2    1    2    0    0 +0.0000000000e+00 +0.0000000000e+00 -1.8408034108e+02 2.2250971209e+02 1.2500000000e+02 0.0000e+00 0.0000e+00
      -15  1    3    3    0    0 +4.7650317776e+01 +2.5945891402e+01 -3.6905149403e+01 6.5642134688e+01 1.7770000000e+00 0.0000e+00 -1.0000e+00
       15  1    3    3    0    0 -4.7650317776e+01 -2.5945891403e+01 -1.4717519166e+02 1.5686757739e+02 1.7770000000e+00 0.0000e+00 -1.0000e+00
       22  1    3    3    0    0 -4.5524756520e-10 +2.4917224404e-10 -9.8820149208e-10 1.1161896531e-09 0.0000000000e+00 0.0000e+00 1.0000e+00
<mgrwt>
<rscale>  2 0.12500000E+03</rscale>
<asrwt>0</asrwt>
<pdfrwt beam="1">  1       21 0.28256890E-02 0.12500000E+03</pdfrwt>
<pdfrwt beam="2">  1       21 0.29896328E-01 0.12500000E+03</pdfrwt>
<totfact> 0.73649998E+06</totfact>
</mgrwt>
</event>
<event>
 6      0 +4.1053447e-01 1.25000000e+02 7.54677100e-03 1.12640300e-01
       21 -1    0    0  502  501 +0.0000000000e+00 +0.0000000000e+00 +6.0555781205e+00 6.0555781205e+00 0.0000000000e+00 0.0000e+00 -1.0000e+00
       21 -1    0    0  501  502 -0.0000000000e+00 -0.0000000000e+00 -6.4506640361e+02 6.4506640361e+02 0.0000000000e+00 0.0000e+00 -1.0000e+00
       25  2    1    2    0    0 +0.0000000000e+00 +0.0000000000e+00 -6.3901082549e+02 6.5112198173e+02 1.2500000000e+02 0.0000e+00 0.0000e+00
      -15  1    3    3    0    0 -3.2487474268e+01 -4.3487749437e+01 -4.8060278468e+02 4.8366188056e+02 1.7770000000e+00 0.0000e+00 1.0000e+00
       15  1    3    3    0    0 +3.2487474318e+01 +4.3487749515e+01 -1.5840804000e+02 1.6746010035e+02 1.7770000000e+00 0.0000e+00 1.0000e+00
       22  1    3    3    0    0 -5.0018574537e-08 -7.8646062455e-08 -8.3811939766e-07 8.4328594538e-07 0.0000000000e+00 0.0000e+00 -1.0000e+00
<mgrwt>
<rscale>  2 0.12500000E+03</rscale>
<asrwt>0</asrwt>
<pdfrwt beam="1">  1       21 0.89052587E-03 0.12500000E+03</pdfrwt>
<pdfrwt beam="2">  1       21 0.94862741E-01 0.12500000E+03</pdfrwt>
<totfact> 0.35492538E+06</totfact>
</mgrwt>
</event>
<event>
 6      0 +4.1053447e-01 1.25000000e+02 7.54677100e-03 1.12640300e-01
       21 -1    0    0  502  501 +0.0000000000e+00 +0.0000000000e+00 +8.9603659998e+01 8.9603659998e+01 0.0000000000e+00 0.0000e+00 -1.0000e+00
       21 -1    0    0  501  502 -0.0000000000e+00 -0.0000000000e+00 -4.3594759412e+01 4.3594759412e+01 0.0000000000e+00 0.0000e+00 -1.0000e+00
       25  2    1    2    0    0 +0.0000000000e+00 +0.0000000000e+00 +4.6008900586e+01 1.3319841941e+02 1.2500000000e+02 0.0000e+00 0.0000e+00
      -15  1    3    3    0    0 +3.7026305471e+01 +9.2180493376e+00 -2.9708989124e+01 4.8391130326e+01 1.7770000000e+00 0.0000e+00 -1.0000e+00
       15  1    3    3    0    0 -3.7026305468e+01 -9.2180493382e+00 +7.5717889708e+01 8.4807289080e+01 1.7770000000e+00 0.0000e+00 -1.0000e+00
       22  1    3    3    0    0 -2.4347395578e-09 +6.4979738657e-10 +1.8958396028e-09 3.1534744580e-09 0.0000000000e+00 0.0000e+00 -1.0000e+00
<mgrwt>
<rscale>  2 0.12500000E+03</rscale>
<asrwt>0</asrwt>
<pdfrwt beam="1">  1       21 0.13177009E-01 0.12500000E+03</pdfrwt>
<pdfrwt beam="2">  1       21 0.64109941E-02 0.12500000E+03</pdfrwt>
<totfact> 0.87522893E+06</totfact>
</mgrwt>
</event>
<event>
 6      0 +4.1053447e-01 1.25000000e+02 7.54677100e-03 1.12640300e-01
       21 -1    0    0  502  501 +0.0000000000e+00 +0.0000000000e+00 +2.2104254403e+02 2.2104254403e+02 0.0000000000e+00 0.0000e+00 -1.0000e+00
       21 -1    0    0  501  502 -0.0000000000e+00 -0.0000000000e+00 -1.7671937396e+01 1.7671937396e+01 0.0000000000e+00 0.0000e+00 -1.0000e+00
       25  2    1    2    0    0 +0.0000000000e+00 +0.0000000000e+00 +2.0337060664e+02 2.3871448143e+02 1.2500000000e+02 0.0000e+00 0.0000e+00
      -15  1    3    3    0    0 -3.7723728728e+01 +4.0034574042e+01 +4.5174028109e+01 7.1201807367e+01 1.7770000000e+00 0.0000e+00 -1.0000e+00
       15  1    3    3    0    0 +3.1752653216e+01 -3.4818222980e+01 +1.3550426319e+02 1.4347509439e+02 1.7770000000e+00 0.0000e+00 -1.0000e+00
       22  1    3    3    0    0 +5.9710755120e+00 -5.2163510622e+00 +2.2692315342e+01 2.4037579678e+01 0.0000000000e+00 0.0000e+00 1.0000e+00
<mgrwt>
<rscale>  2 0.12500000E+03</rscale>
<asrwt>0</asrwt>
<pdfrwt beam="1">  1       21 0.32506255E-01 0.12500000E+03</pdfrwt>
<pdfrwt beam="2">  1       21 0.25988144E-02 0.12500000E+03</pdfrwt>
<totfact> 0.71476476E+06</totfact>
</mgrwt>
</event>
<event>
 6      0 +4.1053447e-01 1.25000000e+02 7.54677100e-03 1.12640300e-01
       21 -1    0    0  502  501 +0.0000000000e+00 +0.0000000000e+00 +1.2132946674e+01 1.2132946674e+01 0.0000000000e+00 0.0000e+00 1.0000e+00
       21 -1    0    0  501  502 -0.0000000000e+00 -0.0000000000e+00 -3.2195394119e+02 3.2195394119e+02 0.0000000000e+00 0.0000e+00 1.0000e+00
       25  2    1    2    0    0 +0.0000000000e+00 +0.0000000000e+00 -3.0982099452e+02 3.3408688787e+02 1.2500000000e+02 0.0000e+00 0.0000e+00
      -15  1    3    3    0    0 -1.5402712597e+01 -5.8106721967e+01 -2.0038217438e+02 2.0921235200e+02 1.7770000000e+00 0.0000e+00 -1.0000e+00
       15  1    3    3    0    0 +1.5398483718e+01 +5.8090738205e+01 -1.0940983917e+02 1.2484117030e+02 1.7770000000e+00 0.0000e+00 -1.0000e+00
       22  1    3    3    0    0 +4.2288783031e-03 +1.5983761710e-02 -2.8980962211e-02 3.3365554405e-02 0.0000000000e+00 0.0000e+00 -1.0000e+00
<mgrwt>
<rscale>  2 0.12500000E+03</rscale>
<asrwt>0</asrwt>
<pdfrwt beam="1">  1       21 0.17842568E-02 0.12500000E+03</pdfrwt>
<pdfrwt beam="2">  1       21 0.47346168E-01 0.12500000E+03</pdfrwt>
<totfact> 0.60187710E+06</totfact>
</mgrwt>
</event>
<event>
 6      0 +4.1053447e-01 1.25000000e+02 7.54677100e-03 1.12640300e-01
       21 -1    0    0  502  501 +0.0000000000e+00 +0.0000000000e+00 +2.5845822145e+02 2.5845822145e+02 0.0000000000e+00 0.0000e+00 1.0000e+00
       21 -1    0    0  501  502 -0.0000000000e+00 -0.0000000000e+00 -1.5113661226e+01 1.5113661226e+01 0.0000000000e+00 0.0000e+00 1.0000e+00
       25  2    1    2    0    0 +0.0000000000e+00 +0.0000000000e+00 +2.4334456022e+02 2.7357188267e+02 1.2500000000e+02 0.0000e+00 0.0000e+00
      -15  1    3    3    0    0 -5.4466530679e+01 -3.0538145314e+01 +1.2599392349e+02 1.4063003865e+02 1.7770000000e+00 0.0000e+00 -1.0000e+00
       15  1    3    3    0    0 +5.4277360945e+01 +3.0427931459e+01 +1.1695054342e+02 1.3248576625e+02 1.7770000000e+00 0.0000e+00 -1.0000e+00
       22  1    3    3    0    0 +1.8916973406e-01 +1.1021385418e-01 +4.0009331454e-01 4.5607778095e-01 0.0000000000e+00 0.0000e+00 -1.0000e+00
<mgrwt>
<rscale>  2 0.12500000E+03</rscale>
<asrwt>0</asrwt>
<pdfrwt beam="1">  1       21 0.38008559E-01 0.12500000E+03</pdfrwt>
<pdfrwt beam="2">  1       21 0.22225974E-02 0.12500000E+03</pdfrwt>
<totfact> 0.67063984E+06</totfact>
</mgrwt>
</event>
<event>
 6      0 +4.1053447e-01 1.25000000e+02 7.54677100e-03 1.12640300e-01
       21 -1    0    0  502  501 +0.0000000000e+00 +0.0000000000e+00 +1.2460733613e+03 1.2460733613e+03 0.0000000000e+00 0.0000e+00 1.0000e+00
       21 -1    0    0  501  502 -0.0000000000e+00 -0.0000000000e+00 -3.1348475308e+00 3.1348475308e+00 0.0000000000e+00 0.0000e+00 1.0000e+00
       25  2    1    2    0    0 +0.0000000000e+00 +0.0000000000e+00 +1.2429385138e+03 1.2492082089e+03 1.2500000000e+02 0.0000e+00 0.0000e+00
      -15  1    3    3    0    0 -4.9475988059e+01 -3.1507806379e+01 +6.5470984904e+02 6.5733458712e+02 1.7770000000e+00 0.0000e+00 1.0000e+00
       15  1    3    3    0    0 +5.0806360543e+01 +2.3719887615e+01 +4.6116524097e+02 4.6456480339e+02 1.7770000000e+00 0.0000e+00 1.0000e+00
       22  1    3    3    0    0 -1.3303724837e+00 +7.7879187639e+00 +1.2706341997e+02 1.2730881456e+02 0.0000000000e+00 0.0000e+00 1.0000e+00
<mgrwt>
<rscale>  2 0.12500000E+03</rscale>
<asrwt>0</asrwt>
<pdfrwt beam="1">  1       21 0.18324574E+00 0.12500000E+03</pdfrwt>
<pdfrwt beam="2">  1       21 0.46100786E-03 0.12500000E+03</pdfrwt>
<totfact> 0.14974774E+06</totfact>
</mgrwt>
</event>
<event>
 6      0 +4.1053447e-01 1.25000000e+02 7.54677100e-03 1.12640300e-01
       21 -1    0    0  502  501 +0.0000000000e+00 +0.0000000000e+00 +4.7082490431e+02 4.7082490431e+02 0.0000000000e+00 0.0000e+00 -1.0000e+00
       21 -1    0    0  501  502 -0.0000000000e+00 -0.0000000000e+00 -8.2966087057e+00 8.2966087057e+00 0.0000000000e+00 0.0000e+00 -1.0000e+00
       25  2    1    2    0    0 +0.0000000000e+00 +0.0000000000e+00 +4.6252829561e+02 4.7912151302e+02 1.2500000000e+02 0.0000e+00 0.0000e+00
      -15  1    3    3    0    0 -4.3886178604e+00 -4.8095721491e+01 +3.8290138088e+02 3.8593922268e+02 1.7770000000e+00 0.0000e+00 -1.0000e+00
       15  1    3    3    0    0 +4.3723584684e+00 +4.8122441346e+01 +7.9486414752e+01 9.3038350903e+01 1.7770000000e+00 0.0000e+00 -1.0000e+00
       22  1    3    3    0    0 +1.6259392002e-02 -2.6719854734e-02 +1.4049999794e-01 1.4393945910e-01 0.0000000000e+00 0.0000e+00 1.0000e+00
<mgrwt>
<rscale>  2 0.12500000E+03</rscale>
<asrwt>0</asrwt>
<pdfrwt beam="1">  1       21 0.69238938E-01 0.12500000E+03</pdfrwt>
<pdfrwt beam="2">  1       21 0.12200898E-02 0.12500000E+03</pdfrwt>
<totfact> 0.46920874E+06</totfact>
</mgrwt>
</event>
<event>
 6      0 +4.1053447e-01 1.25000000e+02 7.54677100e-03 1.12640300e-01
       21 -1    0    0  502  501 +0.0000000000e+00 +0.0000000000e+00 +9.4946590834e+00 9.4946590834e+00 0.0000000000e+00 0.0000e+00 1.0000e+00
       21 -1    0    0  501  502 -0.0000000000e+00 -0.0000000000e+00 -4.1141550904e+02 4.1141550904e+02 0.0000000000e+00 0.0000e+00 1.0000e+00
       25  2    1    2    0    0 +0.0000000000e+00 +0.0000000000e+00 -4.0192084996e+02 4.2091016813e+02 1.2500000000e+02 0.0000e+00 0.0000e+00
      -15  1    3    3    0    0 +5.6383441472e+01 -2.2466811463e+01 -1.9807064328e+02 2.0716898307e+02 1.7770000000e+00 0.0000e+00 -1.0000e+00
       15  1    3    3    0    0 -5.7604913965e+01 +2.3451277978e+01 -1.9309570431e+02 2.0287285995e+02 1.7770000000e+00 0.0000e+00 -1.0000e+00
       22  1    3    3    0    0 +1.2214724931e+00 -9.8446651486e-01 -1.0754502340e+01 1.0868325075e+01 0.0000000000e+00 0.0000e+00 1.0000e+00
<mgrwt>
<rscale>  2 0.12500000E+03</rscale>
<asrwt>0</asrwt>
<pdfrwt beam="1">  1       21 0.13962735E-02 0.12500000E+03</pdfrwt>
<pdfrwt beam="2">  1       21 0.60502275E-01 0.12500000E+03</pdfrwt>
<totfact> 0.51767521E+06</totfact>
</mgrwt>
</event>
<event>
 6      0 +4.1053447e-01 1.25000000e+02 7.54677100e-03 1.12640300e-01
       21 -1    0    0  502  501 +0.0000000000e+00 +0.0000000000e+00 +1.0945670303e+02 1.0945670303e+02 0.0000000000e+00 0.0000e+00 1.0000e+00
       21 -1    0    0  501  502 -0.0000000000e+00 -0.0000000000e+00 -3.5687627089e+01 3.5687627089e+01 0.0000000000e+00 0.0000e+00 1.0000e+00
       25  2    1    2    0    0 +0.0000000000e+00 +0.0000000000e+00 +7.3769075938e+01 1.4514433012e+02 1.2500000000e+02 0.0000e+00 0.0000e+00
      -15  1    3    3    0    0 +1.3552353824e+00 +1.8832245418e+01 +1.0603476519e+02 1.0771731192e+02 1.7770000000e+00 0.0000e+00 -1.0000e+00
       15  1    3    3    0    0 -1.3489382983e+00 -1.8819722262e+01 -3.2247991767e+01 3.7404442017e+01 1.7770000000e+00 0.0000e+00 -1.0000e+00
       22  1    3    3    0    0 -6.2970840444e-03 -1.2523156644e-02 -1.7697485043e-02 2.2576175421e-02 0.0000000000e+00 0.0000e+00 1.0000e+00
<mgrwt>
<rscale>  2 0.12500000E+03</rscale>
<asrwt>0</asrwt>
<pdfrwt beam="1">  1       21 0.16096574E-01 0.12500000E+03</pdfrwt>
<pdfrwt beam="2">  1       21 0.52481805E-02 0.12500000E+03</pdfrwt>
<totfact> 0.85449446E+06</totfact>
</mgrwt>
</event>
<event>
 6      0 +4.1053447e-01 1.25000000e+02 7.54677100e-03 1.12640300e-01
       21 -1    0    0  502  501 +0.0000000000e+00 +0.0000000000e+00 +3.5426728375e+01 3.5426728375e+01 0.0000000000e+00 0.0000e+00 -1.0000e+00
       21 -1    0    0  501  502 -0.0000000000e+00 -0.0000000000e+00 -1.1026279251e+02 1.1026279251e+02 0.0000000000e+00 0.0000e+00 -1.0000e+00
       25  2    1    2    0    0 +0.0000000000e+00 +0.0000000000e+00 -7.4836064132e+01 1.4568952088e+02 1.2500000000e+02 0.0000e+00 0.0000e+00
      -15  1    3    3    0    0 +1.7424788080e+01 +5.9981430576e+01 -3.6516684094e+01 7.2374174951e+01 1.7770000000e+00 0.0000e+00 1.0000e+00
       15  1    3    3    0    0 -1.6244177060e+01 -5.6772210783e+01 -3.5961445025e+01 6.9161697947e+01 1.7770000000e+00 0.0000e+00 1.0000e+00
       22  1    3    3    0    0 -1.1806110191e+00 -3.2092197923e+00 -2.3579350137e+00 4.1536479849e+00 0.0000000000e+00 0.0000e+00 -1.0000e+00
<mgrwt>
<rscale>  2 0.12500000E+03</rscale>
<asrwt>0</asrwt>
<pdfrwt beam="1">  1       21 0.52098131E-02 0.12500000E+03</pdfrwt>
<pdfrwt beam="2">  1       21 0.16215116E-01 0.12500000E+03</pdfrwt>
<totfact> 0.85355901E+06</totfact>
</mgrwt>
</event>
<event>
 6      0 +4.1053447e-01 1.25000000e+02 7.54677100e-03 1.12640300e-01
       21 -1    0    0  502  501 +0.0000000000e+00 +0.0000000000e+00 +1.4901351089e+01 1.4901351089e+01 0.0000000000e+00 0.0000e+00 -1.0000e+00
       21 -1    0    0  501  502 -0.0000000000e+00 -0.0000000000e+00 -2.6214065937e+02 2.6214065937e+02 0.0000000000e+00 0.0000e+00 -1.0000e+00
       25  2    1    2    0    0 +0.0000000000e+00 +0.0000000000e+00 -2.4723930828e+02 2.7704201046e+02 1.2500000000e+02 0.0000e+00 0.0000e+00
      -15  1    3    3    0    0 +1.5570469017e+01 +2.9227927065e+01 -6.2086270852e+00 3.3740420940e+01 1.7770000000e+00 0.0000e+00 -1.0000e+00
       15  1    3    3    0    0 -1.5570398565e+01 -2.9227956284e+01 -2.4103034921e+02 2.4330124888e+02 1.7770000000e+00 0.0000e+00 -1.0000e+00
       22  1    3    3    0    0 -7.0451759391e-05 +2.9219226962e-05 -3.3198046527e-04 3.4062918687e-04 0.0000000000e+00 0.0000e+00 1.0000e+00
<mgrwt>
<rscale>  2 0.12500000E+03</rscale>
<asrwt>0</asrwt>
<pdfrwt beam="1">  1       21 0.21913751E-02 0.12500000E+03</pdfrwt>
<pdfrwt beam="2">  1       21 0.38550098E-01 0.12500000E+03</pdfrwt>
<totfact> 0.66645491E+06</totfact>
</mgrwt>
</event>
<event>
 6      0 +4.1053447e-01 1.25000000e+02 7.54677100e-03 1.12640300e-01
       21 -1    0    0  502  501 +0.0000000000e+00 +0.0000000000e+00 +2.0526470424e+02 2.0526470424e+02 0.0000000000e+00 0.0000e+00 1.0000e+00
       21 -1    0    0  501  502 -0.0000000000e+00 -0.0000000000e+00 -1.9030305354e+01 1.9030305354e+01 0.0000000000e+00 0.0000e+00 1.0000e+00
       25  2    1    2    0    0 +0.0000000000e+00 +0.0000000000e+00 +1.8623439889e+02 2.2429500959e+02 1.2500000000e+02 0.0000e+00 0.0000e+00
      -15  1    3    3    0    0 +5.8924340354e+01 -1.9219955638e+01 +1.0720121392e+02 1.2384160276e+02 1.7770000000e+00 0.0000e+00 1.0000e+00
       15  1    3    3    0    0 -5.8923572184e+01 +1.9219727402e+01 +7.9032072439e+01 1.0045203574e+02 1.7770000000e+00 0.0000e+00 1.0000e+00
       22  1    3    3    0    0 -7.6816995559e-04 +2.2823651343e-04 +1.1125524633e-03 1.3711126760e-03 0.0000000000e+00 0.0000e+00 -1.0000e+00
<mgrwt>
<rscale>  2 0.12500000E+03</rscale>
<asrwt>0</asrwt>
<pdfrwt beam="1">  1       21 0.30185985E-01 0.12500000E+03</pdfrwt>
<pdfrwt beam="2">  1       21 0.27985744E-02 0.12500000E+03</pdfrwt>
<totfact> 0.73407155E+06</totfact>
</mgrwt>
</event>
<event>
 6      0 +4.1053447e-01 1.25000000e+02 7.54677100e-03 1.12640300e-01
       21 -1    0    0  502  501 +0.0000000000e+00 +0.0000000000e+00 +1.2394367315e+01 1.2394367315e+01 0.0000000000e+00 0.0000e+00 1.0000e+00
       21 -1    0    0  501  502 -0.0000000000e+00 -0.0000000000e+00 -3.1516332384e+02 3.1516332384e+02 0.0000000000e+00 0.0000e+00 1.0000e+00
       25  2    1    2    0    0 +0.0000000000e+00 +0.0000000000e+00 -3.0276895653e+02 3.2755769116e+02 1.2500000000e+02 0.0000e+00 0.0000e+00
      -15  1    3    3    0    0 +1.8267582292e+01 -2.8631062798e+01 -1.3975072131e+01 3.6768229354e+01 1.7770000000e+00 0.0000e+00 -1.0000e+00
       15  1    3    3    0    0 -1.8267566333e+01 +2.8630713816e+01 -2.8879127019e+02 2.9078682436e+02 1.7770000000e+00 0.0000e+00 -1.0000e+00
       22  1    3    3    0    0 -1.5958716059e-05 +3.4898228691e-04 -2.6142144337e-03 2.6374533972e-03 0.0000000000e+00 0.0000e+00 1.0000e+00
<mgrwt>
<rscale>  2 0.12500000E+03</rscale>
<asrwt>0</asrwt>
<pdfrwt beam="1">  1       21 0.18227012E-02 0.12500000E+03</pdfrwt>
<pdfrwt beam="2">  1       21 0.46347545E-01 0.12500000E+03</pdfrwt>
<totfact> 0.60885476E+06</totfact>
</mgrwt>
</event>
<event>
 6      0 +4.1053447e-01 1.25000000e+02 7.54677100e-03 1.12640300e-01
       21 -1    0    0  502  501 +0.0000000000e+00 +0.0000000000e+00 +8.9853968684e+01 8.9853968684e+01 0.0000000000e+00 0.0000e+00 1.0000e+00
       21 -1    0    0  501  502 -0.0000000000e+00 -0.0000000000e+00 -4.3473316284e+01 4.3473316284e+01 0.0000000000e+00 0.0000e+00 1.0000e+00
       25  2    1    2    0    0 +0.0000000000e+00 +0.0000000000e+00 +4.6380652400e+01 1.3332728497e+02 1.2500000000e+02 0.0000e+00 0.0000e+00
      -15  1    3    3    0    0 -6.1140925461e+01 +3.5115290335e+00 +3.6197554714e+01 7.1161536651e+01 1.7770000000e+00 0.0000e+00 -1.0000e+00
       15  1    3    3    0    0 +6.1168364444e+01 -3.4948469927e+00 +1.0175856357e+01 6.2132829855e+01 1.7770000000e+00 0.0000e+00 -1.0000e+00
       22  1    3    3    0    0 -2.7438982627e-02 -1.6682040783e-02 +7.2413278131e-03 3.2918461094e-02 0.0000000000e+00 0.0000e+00 1.0000e+00
<mgrwt>
<rscale>  2 0.12500000E+03</rscale>
<asrwt>0</asrwt>
<pdfrwt beam="1">  1       21 0.13213819E-01 0.12500000E+03</pdfrwt>
<pdfrwt beam="2">  1       21 0.63931347E-02 0.12500000E+03</pdfrwt>
<totfact> 0.87500082E+06</totfact>
</mgrwt>
</event>
<event>
 6      0 +4.1053447e-01 1.25000000e+02 7.54677100e-03 1.12640300e-01
       21 -1    0    0  502  501 +0.0000000000e+00 +0.0000000000e+00 +1.1023598678e+01 1.1023598678e+01 0.0000000000e+00 0.0000e+00 -1.0000e+00
       21 -1    0    0  501  502 -0.0000000000e+00 -0.0000000000e+00 -3.5435342978e+02 3.5435342978e+02 0.0000000000e+00 0.0000e+00 -1.0000e+00
       25  2    1    2    0    0 +0.0000000000e+00 +0.0000000000e+00 -3.4332983110e+02 3.6537702846e+02 1.2500000000e+02 0.0000e+00 0.0000e+00
      -15  1    3    3    0    0 +3.0460847435e-01 +5.3192853470e+01 -7.5893421871e+01 9.2695963553e+01 1.7770000000e+00 0.0000e+00 1.0000e+00
       15  1    3    3    0    0 -3.0460848199e-01 -5.3192853466e+01 -2.6743640916e+02 2.7268106484e+02 1.7770000000e+00 0.0000e+00 1.0000e+00
       22  1    3    3    0    0 +7.6401734827e-09 -4.0085648462e-09 -2.9599139485e-08 3.0830989300e-08 0.0000000000e+00 0.0000e+00 1.0000e+00
<mgrwt>
<rscale>  2 0.12500000E+03</rscale>
<asrwt>0</asrwt>
<pdfrwt beam="1">  1       21 0.16211176E-02 0.12500000E+03</pdfrwt>
<pdfrwt beam="2">  1       21 0.52110795E-01 0.12500000E+03</pdfrwt>
<totfact> 0.56977568E+06</totfact>
</mgrwt>
</event>
<event>
 6      0 +4.1053447e-01 1.25000000e+02 7.54677100e-03 1.12640300e-01
       21 -1    0    0  502  501 +0.0000000000e+00 +0.0000000000e+00 +5.3973171897e+01 5.3973171897e+01 0.0000000000e+00 0.0000e+00 1.0000e+00
       21 -1    0    0  501  502 -0.0000000000e+00 -0.0000000000e+00 -7.2373919536e+01 7.2373919536e+01 0.0000000000e+00 0.0000e+00 1.0000e+00
       25  2    1    2    0    0 +0.0000000000e+00 +0.0000000000e+00 -1.8400747639e+01 1.2634709143e+02 1.2500000000e+02 0.0000e+00 0.0000e+00
      -15  1    3    3    0    0 -1.4005580564e+01 +5.4600969718e+01 +1.8028119179e+01 5.9208048365e+01 1.7770000000e+00 0.0000e+00 1.0000e+00
       15  1    3    3    0    0 +1.4005557577e+01 -5.4601001818e+01 -3.6428874846e+01 6.7139002779e+01 1.7770000000e+00 0.0000e+00 1.0000e+00
       22  1    3    3    0    0 +2.2986697593e-05 +3.2100229629e-05 +8.0276846651e-06 4.0289660331e-05 0.0000000000e+00 0.0000e+00 1.0000e+00
<mgrwt>
<rscale>  2 0.12500000E+03</rscale>
<asrwt>0</asrwt>
<pdfrwt beam="1">  1       21 0.79372312E-02 0.12500000E+03</pdfrwt>
<pdfrwt beam="2">  1       21 0.10643223E-01 0.12500000E+03</pdfrwt>
<totfact> 0.88749376E+06</totfact>
</mgrwt>
</event>
<event>
 6      0 +4.1053447e-01 1.25000000e+02 7.54677100e-03 1.12640300e-01
       21 -1    0    0  502  501 +0.0000000000e+00 +0.0000000000e+00 +1.2612659335e+01 1.2612659335e+01 0.0000000000e+00 0.0000e+00 1.0000e+00
       21 -1    0    0  501  502 -0.0000000000e+00 -0.0000000000e+00 -3.0970867413e+02 3.0970867413e+02 0.0000000000e+00 0.0000e+00 1.0000e+00
       25  2    1    2    0    0 +0.0000000000e+00 +0.0000000000e+00 -2.9709601480e+02 3.2232133347e+02 1.2500000000e+02 0.0000e+00 0.0000e+00
      -15  1    3    3    0    0 +1.8767710268e+01 -4.2065530042e+01 -3.9716572912e+01 6.0846525450e+01 1.7770000000e+00 0.0000e+00 1.0000e+00
       15  1    3    3    0    0 -1.8767713443e+01 +4.2065544729e+01 -2.5737942611e+02 2.6147478623e+02 1.7770000000e+00 0.0000e+00 1.0000e+00
       22  1    3    3    0    0 +3.1740117957e-06 -1.4687137686e-05 -1.5776703587e-05 2.1787398660e-05 0.0000000000e+00 0.0000e+00 1.0000e+00
<mgrwt>
<rscale>  2 0.12500000E+03</rscale>
<asrwt>0</asrwt>
<pdfrwt beam="1">  1       21 0.18548026E-02 0.12500000E+03</pdfrwt>
<pdfrwt beam="2">  1       21 0.45545399E-01 0.12500000E+03</pdfrwt>
<totfact> 0.61452628E+06</totfact>
</mgrwt>
</event>
<event>
 6      0 +4.1053447e-01 1.25000000e+02 7.54677100e-03 1.12640300e-01
       21 -1    0    0  502  501 +0.0000000000e+00 +0.0000000000e+00 +6.7549595876e+01 6.7549595876e+01 0.0000000000e+00 0.0000e+00 -1.0000e+00
       21 -1    0    0  501  502 -0.0000000000e+00 -0.0000000000e+00 -5.7827881120e+01 5.7827881120e+01 0.0000000000e+00 0.0000e+00 -1.0000e+00
       25  2    1    2    0    0 +0.0000000000e+00 +0.0000000000e+00 +9.7217147556e+00 1.2537747700e+02 1.2500000000e+02 0.0000e+00 0.0000e+00
      -15  1    3    3    0    0 -1.2679846244e+01 +5.8625940592e+00 -5.6215849899e+01 5.7952808549e+01 1.7770000000e+00 0.0000e+00 -1.0000e+00
       15  1    3    3    0    0 +1.2679850461e+01 -5.8625806643e+00 +6.5937628723e+01 6.7424602857e+01 1.7770000000e+00 0.0000e+00 -1.0000e+00
       22  1    3    3    0    0 -4.2161645850e-06 -1.3394931141e-05 -6.4068685227e-05 6.5589607796e-05 0.0000000000e+00 0.0000e+00 1.0000e+00
<mgrwt>
<rscale>  2 0.12500000E+03</rscale>
<asrwt>0</asrwt>
<pdfrwt beam="1">  1       21 0.99337641E-02 0.12500000E+03</pdfrwt>
<pdfrwt beam="2">  1       21 0.85041002E-02 0.12500000E+03</pdfrwt>
<totfact> 0.88926495E+06</totfact>
</mgrwt>
</event>
<event>
 6      0 +4.1053447e-01 1.25000000e+02 7.54677100e-03 1.12640300e-01
       21 -1    0    0  502  501 +0.0000000000e+00 +0.0000000000e+00 +5.5881255176e+00 5.5881255176e+00 0.0000000000e+00 0.0000e+00 1.0000e+00
       21 -1    0    0  501  502 -0.0000000000e+00 -0.0000000000e+00 -6.9902688973e+02 6.9902688973e+02 0.0000000000e+00 0.0000e+00 1.0000e+00
       25  2    1    2    0    0 +0.0000000000e+00 +0.0000000000e+00 -6.9343876421e+02 7.0461501524e+02 1.2500000000e+02 0.0000e+00 0.0000e+00
      -15  1    3    3    0    0 +1.8291938099e+01 +2.2175402375e+01 -6.5937390513e+02 6.6000261209e+02 1.7770000000e+00 0.0000e+00 1.0000e+00
       15  1    3    3    0    0 -1.8293839547e+01 -2.2175874151e+01 -3.4053216463e+01 4.4600596860e+01 1.7770000000e+00 0.0000e+00 1.0000e+00
       22  1    3    3    0    0 +1.9014479058e-03 +4.7177621374e-04 -1.1642788741e-02 1.1806464611e-02 0.0000000000e+00 0.0000e+00 -1.0000e+00
<mgrwt>
<rscale>  2 0.12500000E+03</rscale>
<asrwt>0</asrwt>
<pdfrwt beam="1">  1       21 0.82178249E-03 0.12500000E+03</pdfrwt>
<pdfrwt beam="2">  1       21 0.10279816E+00 0.12500000E+03</pdfrwt>
<totfact> 0.32678373E+06</totfact>
</mgrwt>
</event>
<event>
 6      0 +4.1053447e-01 1.25000000e+02 7.54677100e-03 1.12640300e-01
       21 -1    0    0  502  501 +0.0000000000e+00 +0.0000000000e+00 +6.5723142024e+01 6.5723142024e+01 0.0000000000e+00 0.0000e+00 -1.0000e+00
       21 -1    0    0  501  502 -0.0000000000e+00 -0.0000000000e+00 -5.9434924742e+01 5.9434924742e+01 0.0000000000e+00 0.0000e+00 -1.0000e+00
       25  2    1    2    0    0 +0.0000000000e+00 +0.0000000000e+00 +6.2882172823e+00 1.2515806677e+02 1.2500000000e+02 0.0000e+00 0.0000e+00
      -15  1    3    3    0    0 +3.8897242236e-01 +6.1992179235e+01 +1.0890522744e+01 6.2967791771e+01 1.7770000000e+00 0.0000e+00 1.0000e+00
       15  1    3    3    0    0 -3.8794044469e-01 -6.1988825357e+01 -4.6043838905e+00 6.2186196595e+01 1.7770000000e+00 0.0000e+00 1.0000e+00
       22  1    3    3    0    0 -1.0319776675e-03 -3.3538783539e-03 +2.0784289963e-03 4.0783998102e-03 0.0000000000e+00 0.0000e+00 1.0000e+00
<mgrwt>
<rscale>  2 0.12500000E+03</rscale>
<asrwt>0</asrwt>
<pdfrwt beam="1">  1       21 0.96651680E-02 0.12500000E+03</pdfrwt>
<pdfrwt beam="2">  1       21 0.87404301E-02 0.12500000E+03</pdfrwt>
<totfact> 0.88969161E+06</totfact>
</mgrwt>
</event>
<event>
 6      0 +4.1053447e-01 1.25000000e+02 7.54677100e-03 1.12640300e-01
       21 -1    0    0  502  501 +0.0000000000e+00 +0.0000000000e+00 +7.1069610417e+02 7.1069610417e+02 0.0000000000e+00 0.0000e+00 -1.0000e+00
       21 -1    0    0  501  502 -0.0000000000e+00 -0.0000000000e+00 -5.4963717644e+00 5.4963717644e+00 0.0000000000e+00 0.0000e+00 -1.0000e+00
       25  2    1    2    0    0 +0.0000000000e+00 +0.0000000000e+00 +7.0519973240e+02 7.1619247593e+02 1.2500000000e+02 0.0000e+00 0.0000e+00
      -15  1    3    3    0    0 +5.5084891670e+01 -2.7284883166e+01 +2.8872588017e+02 2.9520264523e+02 1.7770000000e+00 0.0000e+00 -1.0000e+00
       15  1    3    3    0    0 -5.5084841197e+01 +2.7284854462e+01 +4.1647339475e+02 4.2098936956e+02 1.7770000000e+00 0.0000e+00 -1.0000e+00
       22  1    3    3    0    0 -5.0473597715e-05 +2.8704298633e-05 +4.5743801397e-04 4.6110850941e-04 0.0000000000e+00 0.0000e+00 -1.0000e+00
<mgrwt>
<rscale>  2 0.12500000E+03</rscale>
<asrwt>0</asrwt>
<pdfrwt beam="1">  1       21 0.10451407E+00 0.12500000E+03</pdfrwt>
<pdfrwt beam="2">  1       21 0.80829045E-03 0.12500000E+03</pdfrwt>
<totfact> 0.32103356E+06</totfact>
</mgrwt>
</event>
<event>
 6      0 +4.1053447e-01 1.25000000e+02 7.54677100e-03 1.12640300e-01
       21 -1    0    0  502  501 +0.0000000000e+00 +0.0000000000e+00 +2.2781825527e+02 2.2781825527e+02 0.0000000000e+00 0.0000e+00 -1.0000e+00
       21 -1    0    0  501  502 -0.0000000000e+00 -0.0000000000e+00 -1.7146343235e+01 1.7146343235e+01 0.0000000000e+00 0.0000e+00 -1.0000e+00
       25  2    1    2    0    0 +0.0000000000e+00 +0.0000000000e+00 +2.1067191203e+02 2.4496459850e+02 1.2500000000e+02 0.0000e+00 0.0000e+00
      -15  1    3    3    0    0 +4.4201385050e+01 +1.7277769229e+01 +2.5712383624e+01 5.4005260396e+01 1.7770000000e+00 0.0000e+00 1.0000e+00
       15  1    3    3    0    0 -4.4201385717e+01 -1.7277769361e+01 +1.8495952775e+02 1.9095933716e+02 1.7770000000e+00 0.0000e+00 1.0000e+00
       22  1    3    3    0    0 +6.6745730032e-07 +1.3287696212e-07 +6.5377376540e-07 9.4370316898e-07 0.0000000000e+00 0.0000e+00 -1.0000e+00
<mgrwt>
<rscale>  2 0.12500000E+03</rscale>
<asrwt>0</asrwt>
<pdfrwt beam="1">  1       21 0.33502683E-01 0.12500000E+03</pdfrwt>
<pdfrwt beam="2">  1       21 0.25215212E-02 0.12500000E+03</pdfrwt>
<totfact> 0.70654962E+06</totfact>
</mgrwt>
</event>
<event>
 6      0 +4.1053447e-01 1.25000000e+02 7.54677100e-03 1.12640300e-01
       21 -1    0    0  502  501 +0.0000000000e+00 +0.0000000000e+00 +2.3174777298e+01 2.3174777298e+01 0.0000000000e+00 0.0000e+00 1.0000e+00
       21 -1    0    0  501  502 -0.0000000000e+00 -0.0000000000e+00 -1.6855609656e+02 1.6855609656e+02 0.0000000000e+00 0.0000e+00 1.0000e+00
       25  2    1    2    0    0 +0.0000000000e+00 +0.0000000000e+00 -1.4538131926e+02 1.9173087386e+02 1.2500000000e+02 0.0000e+00 0.0000e+00
      -15  1    3    3    0    0 -4.1754276995e+01 -4.6143396811e+01 -6.4225331349e+01 8.9446540641e+01 1.7770000000e+00 0.0000e+00 -1.0000e+00
       15  1    3    3    0    0 +4.1754276969e+01 +4.6143396705e+01 -8.1155987795e+01 1.0228433306e+02 1.7770000000e+00 0.0000e+00 -1.0000e+00
       22  1    3    3    0    0 +2.5801717595e-08 +1.0657945947e-07 -1.0889959285e-07 1.5454459271e-07 0.0000000000e+00 0.0000e+00 1.0000e+00
<mgrwt>
<rscale>  2 0.12500000E+03</rscale>
<asrwt>0</asrwt>
<pdfrwt beam="1">  1       21 0.34080554E-02 0.12500000E+03</pdfrwt>
<pdfrwt beam="2">  1       21 0.24787662E-01 0.12500000E+03</pdfrwt>
<totfact> 0.78039700E+06</totfact>
</mgrwt>
</event>
<event>
 6      0 +4.1053447e-01 1.25000000e+02 7.54677100e-03 1.12640300e-01
       21 -1    0    0  502  501 +0.0000000000e+00 +0.0000000000e+00 +1.5625691790e+02 1.5625691790e+02 0.0000000000e+00 0.0000e+00 1.0000e+00
       21 -1    0    0  501  502 -0.0000000000e+00 -0.0000000000e+00 -2.4998893184e+01 2.4998893184e+01 0.0000000000e+00 0.0000e+00 1.0000e+00
       25  2    1    2    0    0 +0.0000000000e+00 +0.0000000000e+00 +1.3125802472e+02 1.8125581109e+02 1.2500000000e+02 0.0000e+00 0.0000e+00
      -15  1    3    3    0    0 -5.9842327031e+01 -1.7255016901e+01 +7.2770039635e+01 9.5799144622e+01 1.7770000000e+00 0.0000e+00 1.0000e+00
       15  1    3    3    0    0 +5.9842327041e+01 +1.7255016905e+01 +5.8487985073e+01 8.5456666451e+01 1.7770000000e+00 0.0000e+00 1.0000e+00
       22  1    3    3    0    0 -9.8295986088e-09 -3.5841920875e-09 +1.0091504079e-08 1.4536364618e-08 0.0000000000e+00 0.0000e+00 -1.0000e+00
<mgrwt>
<rscale>  2 0.12500000E+03</rscale>
<asrwt>0</asrwt>
<pdfrwt beam="1">  1       21 0.22978958E-01 0.12500000E+03</pdfrwt>
<pdfrwt beam="2">  1       21 0.36763079E-02 0.12500000E+03</pdfrwt>
<totfact> 0.79614565E+06</totfact>
</mgrwt>
</event>
<event>
 6      0 +4.1053447e-01 1.25000000e+02 7.54677100e-03 1.12640300e-01
       21 -1    0    0  502  501 +0.0000000000e+00 +0.0000000000e+00 +2.5313760482e+01 2.5313760482e+01 0.0000000000e+00 0.0000e+00 -1.0000e+00
       21 -1    0    0  501  502 -0.0000000000e+00 -0.0000000000e+00 -1.5431330334e+02 1.5431330334e+02 0.0000000000e+00 0.0000e+00 -1.0000e+00
       25  2    1    2    0    0 +0.0000000000e+00 +0.0000000000e+00 -1.2899954286e+02 1.7962706382e+02 1.2500000000e+02 0.0000e+00 0.0000e+00
      -15  1    3    3    0    0 +2.2474534422e+01 -4.3853724476e+01 -9.3131280533e+00 5.0181131225e+01 1.7770000000e+00 0.0000e+00 -1.0000e+00
       15  1    3    3    0    0 -2.2474534392e+01 +4.3853724415e+01 -1.1968641466e+02 1.2944593244e+02 1.7770000000e+00 0.0000e+00 -1.0000e+00
       22  1    3    3    0    0 -3.0575421399e-08 +6.0933464111e-08 -1.5219552614e-07 1.6676696801e-07 0.0000000000e+00 0.0000e+00 -1.0000e+00
<mgrwt>
<rscale>  2 0.12500000E+03</rscale>
<asrwt>0</asrwt>
<pdfrwt beam="1">  1       21 0.37226119E-02 0.12500000E+03</pdfrwt>
<pdfrwt beam="2">  1       21 0.22693133E-01 0.12500000E+03</pdfrwt>
<totfact> 0.79863501E+06</totfact>
</mgrwt>
</event>
<event>
 6      0 +4.1053447e-01 1.25000000e+02 7.54677100e-03 1.12640300e-01
       21 -1    0    0  502  501 +0.0000000000e+00 +0.0000000000e+00 +9.9234028467e+01 9.9234028467e+01 0.0000000000e+00 0.0000e+00 1.0000e+00
       21 -1    0    0  501  502 -0.0000000000e+00 -0.0000000000e+00 -3.9364017166e+01 3.9364017166e+01 0.0000000000e+00 0.0000e+00 1.0000e+00
       25  2    1    2    0    0 +0.0000000000e+00 +0.0000000000e+00 +5.9870011301e+01 1.3859804563e+02 1.2500000000e+02 0.0000e+00 0.0000e+00
      -15  1    3    3    0    0 -4.6550801060e+00 -1.1362464228e+01 +9.7835348288e+01 9.8618905225e+01 1.7770000000e+00 0.0000e+00 1.0000e+00
       15  1    3    3    0    0 +4.6605891353e+00 +1.1381520732e+01 -3.7975442686e+01 3.9956877774e+01 1.7770000000e+00 0.0000e+00 1.0000e+00
       22  1    3    3    0    0 -5.5090292851e-03 -1.9056503468e-02 +1.0105700365e-02 2.2262634794e-02 0.0000000000e+00 0.0000e+00 1.0000e+00
<mgrwt>
<rscale>  2 0.12500000E+03</rscale>
<asrwt>0</asrwt>
<pdfrwt beam="1">  1       21 0.14593239E-01 0.12500000E+03</pdfrwt>
<pdfrwt beam="2">  1       21 0.57888261E-02 0.12500000E+03</pdfrwt>
<totfact> 0.86582312E+06</totfact>
</mgrwt>
</event>
<event>
 6      0 +4.1053447e-01 1.25000000e+02 7.54677100e-03 1.12640300e-01
       21 -1    0    0  502  501 +0.0000000000e+00 +0.0000000000e+00 +7.3750857733e+02 7.3750857733e+02 0.0000000000e+00 0.0000e+00 -1.0000e+00
       21 -1    0    0  501  502 -0.0000000000e+00 -0.0000000000e+00 -5.2965485692e+00 5.2965485692e+00 0.0000000000e+00 0.0000e+00 -1.0000e+00
       25  2    1    2    0    0 +0.0000000000e+00 +0.0000000000e+00 +7.3221202876e+02 7.4280512590e+02 1.2500000000e+02 0.0000e+00 0.0000e+00
      -15  1    3    3    0    0 +2.3688461535e+01 +3.8984666752e+01 +6.1976841090e+02 6.2144749442e+02 1.7770000000e+00 0.0000e+00 -1.0000e+00
       15  1    3    3    0    0 -2.3688410561e+01 -3.8984664908e+01 +1.1244352971e+02 1.2135752962e+02 1.7770000000e+00 0.0000e+00 -1.0000e+00
       22  1    3    3    0    0 -5.0973610768e-05 -1.8440501289e-06 +8.8089809397e-05 1.0179157153e-04 0.0000000000e+00 0.0000e+00 -1.0000e+00
<mgrwt>
<rscale>  2 0.12500000E+03</rscale>
<asrwt>0</asrwt>
<pdfrwt beam="1">  1       21 0.10845707E+00 0.12500000E+03</pdfrwt>
<pdfrwt beam="2">  1       21 0.77890471E-03 0.12500000E+03</pdfrwt>
<totfact> 0.30828653E+06</totfact>
</mgrwt>
</event>
<event>
 6      0 +4.1053447e-01 1.25000000e+02 7.54677100e-03 1.12640300e-01
       21 -1    0    0  502  501 +0.0000000000e+00 +0.0000000000e+00 +2.7658047991e+02 2.7658047991e+02 0.0000000000e+00 0.0000e+00 -1.0000e+00
       21 -1    0    0  501  502 -0.0000000000e+00 -0.0000000000e+00 -1.4123375595e+01 1.4123375595e+01 0.0000000000e+00 0.0000e+00 -1.0000e+00
       25  2    1    2    0    0 +0.0000000000e+00 +0.0000000000e+00 +2.6245710431e+02 2.9070385550e+02 1.2500000000e+02 0.0000e+00 0.0000e+00
      -15  1    3    3    0    0 -2.8000637885e+01 +2.2352745026e+01 +2.5025476335e+02 2.5281274739e+02 1.7770000000e+00 0.0000e+00 1.0000e+00
       15  1    3    3    0    0 +2.8000638118e+01 -2.2352745550e+01 +1.2202336111e+01 3.7891103232e+01 1.7770000000e+00 0.0000e+00 1.0000e+00
       22  1    3    3    0    0 -2.3319803936e-07 +5.2435783778e-07 +4.8446274489e-06 4.8784984971e-06 0.0000000000e+00 0.0000e+00 1.0000e+00
<mgrwt>
<rscale>  2 0.12500000E+03</rscale>
<asrwt>0</asrwt>
<pdfrwt beam="1">  1       21 0.40673597E-01 0.12500000E+03</pdfrwt>
<pdfrwt beam="2">  1       21 0.20769672E-02 0.12500000E+03</pdfrwt>
<totfact> 0.65027484E+06</totfact>
</mgrwt>
</event>
<event>
 6      0 +4.1053447e-01 1.25000000e+02 7.54677100e-03 1.12640300e-01
       21 -1    0    0  502  501 +0.0000000000e+00 +0.0000000000e+00 +2.6487813394e+01 2.6487813394e+01 0.0000000000e+00 0.0000e+00 1.0000e+00
       21 -1    0    0  501  502 -0.0000000000e+00 -0.0000000000e+00 -1.4747347929e+02 1.4747347929e+02 0.0000000000e+00 0.0000e+00 1.0000e+00
       25  2    1    2    0    0 +0.0000000000e+00 +0.0000000000e+00 -1.2098566590e+02 1.7396129268e+02 1.2500000000e+02 0.0000e+00 0.0000e+00
      -15  1    3    3    0    0 +4.5693481033e+01 +2.0976800517e+01 -1.1205313821e+02 1.2282908402e+02 1.7770000000e+00 0.0000e+00 -1.0000e+00
       15  1    3    3    0    0 -4.4910103668e+01 -2.0840189156e+01 -8.6693839088e+00 5.0294600524e+01 1.7770000000e+00 0.0000e+00 -1.0000e+00
       22  1    3    3    0    0 -7.8337736523e-01 -1.3661136140e-01 -2.6314378866e-01 8.3760815058e-01 0.0000000000e+00 0.0000e+00 -1.0000e+00
<mgrwt>
<rscale>  2 0.12500000E+03</rscale>
<asrwt>0</asrwt>
<pdfrwt beam="1">  1       21 0.38952667E-02 0.12500000E+03</pdfrwt>
<pdfrwt beam="2">  1       21 0.21687276E-01 0.12500000E+03</pdfrwt>
<totfact> 0.80740257E+06</totfact>
</mgrwt>
</event>
<event>
 6      0 +4.1053447e-01 1.25000000e+02 7.54677100e-03 1.12640300e-01
       21 -1    0    0  502  501 +0.0000000000e+00 +0.0000000000e+00 +1.3130109243e+03 1.3130109243e+03 0.0000000000e+00 0.0000e+00 1.0000e+00
       21 -1    0    0  501  502 -0.0000000000e+00 -0.0000000000e+00 -2.9750323686e+00 2.9750323686e+00 0.0000000000e+00 0.0000e+00 1.0000e+00
       25  2    1    2    0    0 +0.0000000000e+00 +0.0000000000e+00 +1.3100358919e+03 1.3159859566e+03 1.2500000000e+02 0.0000e+00 0.0000e+00
      -15  1    3    3    0    0 +2.2138354611e+01 +1.0004357916e+01 +4.9056076402e+01 5.4770889012e+01 1.7770000000e+00 0.0000e+00 1.0000e+00
       15  1    3    3    0    0 -2.2138354396e+01 -1.0004357118e+01 +1.2609797652e+03 1.2612150173e+03 1.7770000000e+00 0.0000e+00 1.0000e+00
       22  1    3    3    0    0 -2.1446088016e-07 -7.9850702919e-07 +5.4364417600e-05 5.4370704501e-05 0.0000000000e+00 0.0000e+00 -1.0000e+00
<mgrwt>
<rscale>  2 0.12500000E+03</rscale>
<asrwt>0</asrwt>
<pdfrwt beam="1">  1       21 0.19308944E+00 0.12500000E+03</pdfrwt>
<pdfrwt beam="2">  1       21 0.43750567E-03 0.12500000E+03</pdfrwt>
<totfact> 0.13660286E+06</totfact>
</mgrwt>
</event>
<event>
 6      0 +4.1053447e-01 1.25000000e+02 7.54677100e-03 1.12640300e-01
       21 -1    0    0  502  501 +0.0000000000e+00 +0.0000000000e+00 +7.2798785681e+00 7.2798785681e+00 0.0000000000e+00 0.0000e+00 -1.0000e+00
       21 -1    0    0  501  502 -0.0000000000e+00 -0.0000000000e+00 -5.3658175249e+02 5.3658175249e+02 0.0000000000e+00 0.0000e+00 -1.0000e+00
       25  2    1    2    0    0 +0.0000000000e+00 +0.0000000000e+00 -5.2930187392e+02 5.4386163106e+02 1.2500000000e+02 0.0000e+00 0.0000e+00
      -15  1    3    3    0    0 -2.8828447423e+01 -5.3774257922e+01 -3.2307972892e+02 3.2879540624e+02 1.7770000000e+00 0.0000e+00 -1.0000e+00
       15  1    3    3    0    0 +2.8828447580e+01 +5.3774257620e+01 -2.0622214157e+02 2.1506622137e+02 1.7770000000e+00 0.0000e+00 -1.0000e+00
       22  1    3    3    0    0 -1.5769062914e-07 +3.0222487651e-07 -3.3599449421e-06 3.3771935427e-06 0.0000000000e+00 0.0000e+00 -1.0000e+00
<mgrwt>
<rscale>  2 0.12500000E+03</rscale>
<asrwt>0</asrwt>
<pdfrwt beam="1">  1       21 0.10705700E-02 0.12500000E+03</pdfrwt>
<pdfrwt beam="2">  1       21 0.78909109E-01 0.12500000E+03</pdfrwt>
<totfact> 0.42210854E+06</totfact>
</mgrwt>
</event>
<event>
 6      0 +4.1053447e-01 1.25000000e+02 7.54677100e-03 1.12640300e-01
       21 -1    0    0  502  501 +0.0000000000e+00 +0.0000000000e+00 +1.4547092636e+01 1.4547092636e+01 0.0000000000e+00 0.0000e+00 -1.0000e+00
       21 -1    0    0  501  502 -0.0000000000e+00 -0.0000000000e+00 -2.6852444662e+02 2.6852444662e+02 0.0000000000e+00 0.0000e+00 -1.0000e+00
       25  2    1    2    0    0 +0.0000000000e+00 +0.0000000000e+00 -2.5397735398e+02 2.8307153926e+02 1.2500000000e+02 0.0000e+00 0.0000e+00
      -15  1    3    3    0    0 +7.9820041214e+00 -2.7608050359e+01 -1.3676721690e+00 2.8826118202e+01 1.7770000000e+00 0.0000e+00 -1.0000e+00
       15  1    3    3    0    0 -7.9820131289e+00 +2.7608058095e+01 -2.5260968462e+02 2.5424540881e+02 1.7770000000e+00 0.0000e+00 -1.0000e+00
       22  1    3    3    0    0 +9.0074776356e-06 -7.7356769081e-06 +2.8480277784e-06 1.2210102899e-05 0.0000000000e+00 0.0000e+00 1.0000e+00
<mgrwt>
<rscale>  2 0.12500000E+03</rscale>
<asrwt>0</asrwt>
<pdfrwt beam="1">  1       21 0.21392784E-02 0.12500000E+03</pdfrwt>
<pdfrwt beam="2">  1       21 0.39488887E-01 0.12500000E+03</pdfrwt>
<totfact> 0.65926031E+06</totfact>
</mgrwt>
</event>
<event>
 6      0 +4.1053447e-01 1.25000000e+02 7.54677100e-03 1.12640300e-01
       21 -1    0    0  502  501 +0.0000000000e+00 +0.0000000000e+00 +3.4330603650e+01 3.4330603650e+01 0.0000000000e+00 0.0000e+00 -1.0000e+00
       21 -1    0    0  501  502 -0.0000000000e+00 -0.0000000000e+00 -1.1378331823e+02 1.1378331823e+02 0.0000000000e+00 0.0000e+00 -1.0000e+00
       25  2    1    2    0    0 +0.0000000000e+00 +0.0000000000e+00 -7.9452714575e+01 1.4811392188e+02 1.2500000000e+02 0.0000e+00 0.0000e+00
      -15  1    3    3    0    0 -3.4311863796e+01 -3.0384797403e+00 -3.4219162467e+01 4.8586471010e+01 1.7770000000e+00 0.0000e+00 -1.0000e+00
       15  1    3    3    0    0 +3.1823751136e+00 +3.9150910924e+01 -1.0991425885e+01 4.0827570458e+01 1.7770000000e+00 0.0000e+00 -1.0000e+00
       22  1    3    3    0    0 +3.1129488682e+01 -3.6112431183e+01 -3.4242126220e+01 5.8699880405e+01 0.0000000000e+00 0.0000e+00 -1.0000e+00
<mgrwt>
<rscale>  2 0.12500000E+03</rscale>
<asrwt>0</asrwt>
<pdfrwt beam="1">  1       21 0.50486183E-02 0.12500000E+03</pdfrwt>
<pdfrwt beam="2">  1       21 0.16732841E-01 0.12500000E+03</pdfrwt>
<totfact> 0.84943154E+06</totfact>
</mgrwt>
</event>
<event>
 6      0 +4.1053447e-01 1.25000000e+02 7.54677100e-03 1.12640300e-01
       21 -1    0    0  502  501 +0.0000000000e+00 +0.0000000000e+00 +1.3895930122e+01 1.3895930122e+01 0.0000000000e+00 0.0000e+00 1.0000e+00
       21 -1    0    0  501  502 -0.0000000000e+00 -0.0000000000e+00 -2.8110748727e+02 2.8110748727e+02 0.0000000000e+00 0.0000e+00 1.0000e+00
       25  2    1    2    0    0 +0.0000000000e+00 +0.0000000000e+00 -2.6721155715e+02 2.9500341739e+02 1.2500000000e+02 0.0000e+00 0.0000e+00
      -15  1    3    3    0    0 -4.4614737677e+01 +2.1451193260e+01 -1.9689316258e+02 2.0302882483e+02 1.7770000000e+00 0.0000e+00 1.0000e+00
       15  1    3    3    0    0 +4.7535258207e+01 -2.2247765806e+01 -5.3799094152e+01 7.5180210939e+01 1.7770000000e+00 0.0000e+00 1.0000e+00
       22  1    3    3    0    0 -2.9205205301e+00 +7.9657254655e-01 -1.6519300442e+01 1.6794381653e+01 0.0000000000e+00 0.0000e+00 1.0000e+00
<mgrwt>
<rscale>  2 0.12500000E+03</rscale>
<asrwt>0</asrwt>
<pdfrwt beam="1">  1       21 0.20435193E-02 0.12500000E+03</pdfrwt>
<pdfrwt beam="2">  1       21 0.41339333E-01 0.12500000E+03</pdfrwt>
<totfact> 0.64526933E+06</totfact>
</mgrwt>
</event>
<event>
 6      0 +4.1053447e-01 1.25000000e+02 7.54677100e-03 1.12640300e-01
       21 -1    0    0  502  501 +0.0000000000e+00 +0.0000000000e+00 +6.6706171901e+01 6.6706171901e+01 0.0000000000e+00 0.0000e+00 1.0000e+00
       21 -1    0    0  501  502 -0.0000000000e+00 -0.0000000000e+00 -5.8559049165e+01 5.8559049165e+01 0.0000000000e+00 0.0000e+00 1.0000e+00
       25  2    1    2    0    0 +0.0000000000e+00 +0.0000000000e+00 +8.1471227359e+00 1.2526522107e+02 1.2500000000e+02 0.0000e+00 0.0000e+00
      -15  1    3    3    0    0 +3.2695476138e+01 -5.3220475945e+01 +3.6505377307e+00 6.2593109640e+01 1.7770000000e+00 0.0000e+00 1.0000e+00
       15  1    3    3    0    0 -3.2703095915e+01 +5.3228257048e+01 +4.4877714688e+00 6.2658101252e+01 1.7770000000e+00 0.0000e+00 1.0000e+00
       22  1    3    3    0    0 +7.6197766593e-03 -7.7811025226e-03 +8.8135360530e-03 1.4010173824e-02 0.0000000000e+00 0.0000e+00 -1.0000e+00
<mgrwt>
<rscale>  2 0.12500000E+03</rscale>
<asrwt>0</asrwt>
<pdfrwt beam="1">  1       21 0.98097312E-02 0.12500000E+03</pdfrwt>
<pdfrwt beam="2">  1       21 0.86116249E-02 0.12500000E+03</pdfrwt>
<totfact> 0.88948017E+06</totfact>
</mgrwt>
</event>
<event>
 6      0 +4.1053447e-01 1.25000000e+02 7.54677100e-03 1.12640300e-01
       21 -1    0    0  502  501 +0.0000000000e+00 +0.0000000000e+00 +1.5680441524e+02 1.5680441524e+02 0.0000000000e+00 0.0000e+00 -1.0000e+00
       21 -1    0    0  501  502 -0.0000000000e+00 -0.0000000000e+00 -2.4911607202e+01 2.4911607202e+01 0.0000000000e+00 0.0000e+00 -1.0000e+00
       25  2    1    2    0    0 +0.0000000000e+00 +0.0000000000e+00 +1.3189280804e+02 1.8171602244e+02 1.2500000000e+02 0.0000e+00 0.0000e+00
      -15  1    3    3    0    0 +4.0294488408e+01 +4.4041405851e+01 +3.9148827910e+01 7.1407840474e+01 1.7770000000e+00 0.0000e+00 -1.0000e+00
       15  1    3    3    0    0 -4.0294488110e+01 -4.4041406271e+01 +9.2743980451e+01 1.1030818137e+02 1.7770000000e+00 0.0000e+00 -1.0000e+00
       22  1    3    3    0    0 -2.9759930098e-07 +4.2028514703e-07 -3.1487540949e-07 6.0361533469e-07 0.0000000000e+00 0.0000e+00 -1.0000e+00
<mgrwt>
<rscale>  2 0.12500000E+03</rscale>
<asrwt>0</asrwt>
<pdfrwt beam="1">  1       21 0.23059472E-01 0.12500000E+03</pdfrwt>
<pdfrwt beam="2">  1       21 0.36634717E-02 0.12500000E+03</pdfrwt>
<totfact> 0.79544462E+06</totfact>
</mgrwt>
</event>
<event>
 6      0 +4.1053447e-01 1.25000000e+02 7.54677100e-03 1.12640300e-01
       21 -1    0    0  502  501 +0.0000000000e+00 +0.0000000000e+00 +4.2011677798e+01 4.2011677798e+01 0.0000000000e+00 0.0000e+00 -1.0000e+00
       21 -1    0    0  501  502 -0.0000000000e+00 -0.0000000000e+00 -9.2980099933e+01 9.2980099933e+01 0.0000000000e+00 0.0000e+00 -1.0000e+00
       25  2    1    2    0    0 +0.0000000000e+00 +0.0000000000e+00 -5.0968422135e+01 1.3499177773e+02 1.2500000000e+02 0.0000e+00 0.0000e+00
      -15  1    3    3    0    0 +6.4864321919e+00 +1.0596354547e+01 +2.9994993173e+01 3.2514825491e+01 1.7770000000e+00 0.0000e+00 -1.0000e+00
       15  1    3    3    0    0 -8.4153699971e+00 -1.7042978989e+01 -8.9553166284e+01 9.1565325891e+01 1.7770000000e+00 0.0000e+00 -1.0000e+00
       22  1    3    3    0    0 +1.9289378051e+00 +6.4466244420e+00 +8.5897509762e+00 1.0911626349e+01 0.0000000000e+00 0.0000e+00 1.0000e+00
<mgrwt>
<rscale>  2 0.12500000E+03</rscale>
<asrwt>0</asrwt>
<pdfrwt beam="1">  1       21 0.61781880E-02 0.12500000E+03</pdfrwt>
<pdfrwt beam="2">  1       21 0.13673544E-01 0.12500000E+03</pdfrwt>
<totfact> 0.87207331E+06</totfact>
</mgrwt>
</event>
<event>
 6      0 +4.1053447e-01 1.25000000e+02 7.54677100e-03 1.12640300e-01
       21 -1    0    0  502  501 +0.0000000000e+00 +0.0000000000e+00 +1.0060845606e+02 1.0060845606e+02 0.0000000000e+00 0.0000e+00 -1.0000e+00
       21 -1    0    0  501  502 -0.0000000000e+00 -0.0000000000e+00 -3.8826259271e+01 3.8826259271e+01 0.0000000000e+00 0.0000e+00 -1.0000e+00
       25  2    1    2    0    0 +0.0000000000e+00 +0.0000000000e+00 +6.1782196794e+01 1.3943471534e+02 1.2500000000e+02 0.0000e+00 0.0000e+00
      -15  1    3    3    0    0 -1.7292498161e+01 +4.6472632976e+01 -1.1438353025e+01 5.0918854635e+01 1.7770000000e+00 0.0000e+00 1.0000e+00
       15  1    3    3    0    0 +1.7233893030e+01 -4.6523992476e+01 +7.3172454044e+01 8.8424287980e+01 1.7770000000e+00 0.0000e+00 1.0000e+00
       22  1    3    3    0    0 +5.8605131054e-02 +5.1359500446e-02 +4.8095772143e-02 9.1572719574e-02 0.0000000000e+00 0.0000e+00 -1.0000e+00
<mgrwt>
<rscale>  2 0.12500000E+03</rscale>
<asrwt>0</asrwt>
<pdfrwt beam="1">  1       21 0.14795361E-01 0.12500000E+03</pdfrwt>
<pdfrwt beam="2">  1       21 0.57097440E-02 0.12500000E+03</pdfrwt>
<totfact> 0.86437983E+06</totfact>
</mgrwt>
</event>
<event>
 6      0 +4.1053447e-01 1.25000000e+02 7.54677100e-03 1.12640300e-01
       21 -1    0    0  502  501 +0.0000000000e+00 +0.0000000000e+00 +1.5086411101e+02 1.5086411101e+02 0.0000000000e+00 0.0000e+00 -1.0000e+00
       21 -1    0    0  501  502 -0.0000000000e+00 -0.0000000000e+00 -2.5892506666e+01 2.5892506666e+01 0.0000000000e+00 0.0000e+00 -1.0000e+00
       25  2    1    2    0    0 +0.0000000000e+00 +0.0000000000e+00 +1.2497160435e+02 1.7675661768e+02 1.2500000000e+02 0.0000e+00 0.0000e+00
      -15  1    3    3    0    0 -4.3943900594e+01 +1.8954859151e+01 +1.4209292283e+01 4.9954126966e+01 1.7770000000e+00 0.0000e+00 -1.0000e+00
       15  1    3    3    0    0 +4.8535681046e+01 -2.3762748339e+01 +1.0454699254e+02 1.1770136754e+02 1.7770000000e+00 0.0000e+00 -1.0000e+00
       22  1    3    3    0    0 -4.5917804519e+00 +4.8078891889e+00 +6.2153195317e+00 9.1011231753e+00 0.0000000000e+00 0.0000e+00 -1.0000e+00
<mgrwt>
<rscale>  2 0.12500000E+03</rscale>
<asrwt>0</asrwt>
<pdfrwt beam="1">  1       21 0.22185898E-01 0.12500000E+03</pdfrwt>
<pdfrwt beam="2">  1       21 0.38077216E-02 0.12500000E+03</pdfrwt>
<totfact> 0.80305514E+06</totfact>
</mgrwt>
</event>
<event>
 6      0 +4.1053447e-01 1.25000000e+02 7.54677100e-03 1.12640300e-01
       21 -1    0    0  502  501 +0.0000000000e+00 +0.0000000000e+00 +1.1562602522e+01 1.1562602522e+01 0.0000000000e+00 0.0000e+00 -1.0000e+00
       21 -1    0    0  501  502 -0.0000000000e+00 -0.0000000000e+00 -3.3783484233e+02 3.3783484233e+02 0.0000000000e+00 0.0000e+00 -1.0000e+00
       25  2    1    2    0    0 +0.0000000000e+00 +0.0000000000e+00 -3.2627223981e+02 3.4939744485e+02 1.2500000000e+02 0.0000e+00 0.0000e+00
      -15  1    3    3    0    0 -4.6980158703e+01 -3.7973780748e+01 -1.2835646788e+02 1.4187206882e+02 1.7770000000e+00 0.0000e+00 -1.0000e+00
       15  1    3    3    0    0 +4.7798650221e+01 +3.8497956445e+01 -1.9367837205e+02 2.0317793468e+02 1.7770000000e+00 0.0000e+00 -1.0000e+00
       22  1    3    3    0    0 -8.1849151853e-01 -5.2417569720e-01 -4.2373999174e+00 4.3474413840e+00 0.0000000000e+00 0.0000e+00 -1.0000e+00
<mgrwt>
<rscale>  2 0.12500000E+03</rscale>
<asrwt>0</asrwt>
<pdfrwt beam="1">  1       21 0.17003826E-02 0.12500000E+03</pdfrwt>
<pdfrwt beam="2">  1       21 0.49681597E-01 0.12500000E+03</pdfrwt>
<totfact> 0.58590702E+06</totfact>
</mgrwt>
</event>
<event>
 6      0 +4.1053447e-01 1.25000000e+02 7.54677100e-03 1.12640300e-01
       21 -1    0    0  502  501 +0.0000000000e+00 +0.0000000000e+00 +1.2031354630e+01 1.2031354630e+01 0.0000000000e+00 0.0000e+00 -1.0000e+00
       21 -1    0    0  501  502 -0.0000000000e+00 -0.0000000000e+00 -3.2467250116e+02 3.2467250116e+02 0.0000000000e+00 0.0000e+00 -1.0000e+00
       25  2    1    2    0    0 +0.0000000000e+00 +0.0000000000e+00 -3.1264114653e+02 3.3670385579e+02 1.2500000000e+02 0.0000e+00 0.0000e+00
      -15  1    3    3    0    0 -3.6900896377e+01 +4.6840853508e+01 -2.0652269562e+02 2.1496633049e+02 1.7770000000e+00 0.0000e+00 -1.0000e+00
       15  1    3    3    0    0 +3.6900896382e+01 -4.6840853513e+01 -1.0611845088e+02 1.2173752527e+02 1.7770000000e+00 0.0000e+00 -1.0000e+00
       22  1    3    3    0    0 -5.5399074991e-09 +4.3268898201e-09 -2.3019954307e-08 2.4069292614e-08 0.0000000000e+00 0.0000e+00 -1.0000e+00
<mgrwt>
<rscale>  2 0.12500000E+03</rscale>
<asrwt>0</asrwt>
<pdfrwt beam="1">  1       21 0.17693164E-02 0.12500000E+03</pdfrwt>
<pdfrwt beam="2">  1       21 0.47745967E-01 0.12500000E+03</pdfrwt>
<totfact> 0.59910898E+06</totfact>
</mgrwt>
</event>
<event>
 6      0 +4.1053447e-01 1.25000000e+02 7.54677100e-03 1.12640300e-01
       21 -1    0    0  502  501 +0.0000000000e+00 +0.0000000000e+00 +1.8742712864e+01 1.8742712864e+01 0.0000000000e+00 0.0000e+00 -1.0000e+00
       21 -1    0    0  501  502 -0.0000000000e+00 -0.0000000000e+00 -2.0841433299e+02 2.0841433299e+02 0.0000000000e+00 0.0000e+00 -1.0000e+00
       25  2    1    2    0    0 +0.0000000000e+00 +0.0000000000e+00 -1.8967162012e+02 2.2715704585e+02 1.2500000000e+02 0.0000e+00 0.0000e+00
      -15  1    3    3    0    0 -2.8562801634e+01 -5.2807131447e+01 -6.3430091838e+01 8.7355372179e+01 1.7770000000e+00 0.0000e+00 1.0000e+00
       15  1    3    3    0    0 +2.8562801635e+01 +5.2807131447e+01 -1.2624152828e+02 1.3980167367e+02 1.7770000000e+00 0.0000e+00 1.0000e+00
       22  1    3    3    0    0 -6.3505774797e-10 +1.4511897524e-10 -2.4074322508e-09 2.4940104054e-09 0.0000000000e+00 0.0000e+00 1.0000e+00
<mgrwt>
<rscale>  2 0.12500000E+03</rscale>
<asrwt>0</asrwt>
<pdfrwt beam="1">  1       21 0.27562812E-02 0.12500000E+03</pdfrwt>
<pdfrwt beam="2">  1       21 0.30649168E-01 0.12500000E+03</pdfrwt>
<totfact> 0.73019972E+06</totfact>
</mgrwt>
</event>
<event>
 6      0 +4.1053447e-01 1.25000000e+02 7.54677100e-03 1.12640300e-01
       21 -1    0    0  502  501 +0.0000000000e+00 +0.0000000000e+00 +1.1511925378e+02 1.1511925378e+02 0.0000000000e+00 0.0000e+00 -1.0000e+00
       21 -1    0    0  501  502 -0.0000000000e+00 -0.0000000000e+00 -3.3932203970e+01 3.3932203970e+01 0.0000000000e+00 0.0000e+00 -1.0000e+00
       25  2    1    2    0    0 +0.0000000000e+00 +0.0000000000e+00 +8.1187049806e+01 1.4905145775e+02 1.2500000000e+02 0.0000e+00 0.0000e+00
      -15  1    3    3    0    0 -1.2469717426e+01 +5.9056437855e+01 +5.9817462027e+01 8.4996724626e+01 1.7770000000e+00 0.0000e+00 -1.0000e+00
       15  1    3    3    0    0 +1.2469755664e+01 -5.9056566466e+01 +2.1369445457e+01 6.4054537522e+01 1.7770000000e+00 0.0000e+00 -1.0000e+00
       22  1    3    3    0    0 -3.8237888776e-05 +1.2861090750e-04 +1.4231826507e-04 1.9559496475e-04 0.0000000000e+00 0.0000e+00 -1.0000e+00
<mgrwt>
<rscale>  2 0.12500000E+03</rscale>
<asrwt>0</asrwt>
<pdfrwt beam="1">  1       21 0.16929302E-01 0.12500000E+03</pdfrwt>
<pdfrwt beam="2">  1       21 0.49900300E-02 0.12500000E+03</pdfrwt>
<totfact> 0.84784871E+06</totfact>
</mgrwt>
</event>
<event>
 6      0 +4.1053447e-01 1.25000000e+02 7.54677100e-03 1.12640300e-01
       21 -1    0    0  502  501 +0.0000000000e+00 +0.0000000000e+00 +2.8984468761e+02 2.8984468761e+02 0.0000000000e+00 0.0000e+00 -1.0000e+00
       21 -1    0    0  501  502 -0.0000000000e+00 -0.0000000000e+00 -1.3477045352e+01 1.3477045352e+01 0.0000000000e+00 0.0000e+00 -1.0000e+00
       25  2    1    2    0    0 +0.0000000000e+00 +0.0000000000e+00 +2.7636764226e+02 3.0332173297e+02 1.2500000000e+02 0.0000e+00 0.0000e+00
      -15  1    3    3    0    0 +1.4926715827e+01 -1.4675182684e+00 -3.2764241751e-01 1.5107135193e+01 1.7770000000e+00 0.0000e+00 -1.0000e+00
       15  1    3    3    0    0 -3.8541464192e+01 +2.5021513926e+01 +1.8538716165e+02 1.9100543985e+02 1.7770000000e+00 0.0000e+00 -1.0000e+00
       22  1    3    3    0    0 +2.3614748366e+01 -2.3553995657e+01 +9.1308122999e+01 9.7209157888e+01 0.0000000000e+00 0.0000e+00 -1.0000e+00
<mgrwt>
<rscale>  2 0.12500000E+03</rscale>
<asrwt>0</asrwt>
<pdfrwt beam="1">  1       21 0.42624215E-01 0.12500000E+03</pdfrwt>
<pdfrwt beam="2">  1       21 0.19819186E-02 0.12500000E+03</pdfrwt>
<totfact> 0.63569944E+06</totfact>
</mgrwt>
</event>
<event>
 6      0 +4.1053447e-01 1.25000000e+02 7.54677100e-03 1.12640300e-01
       21 -1    0    0  502  501 +0.0000000000e+00 +0.0000000000e+00 +7.1590173263e+00 7.1590173263e+00 0.0000000000e+00 0.0000e+00 1.0000e+00
       21 -1    0    0  501  502 -0.0000000000e+00 -0.0000000000e+00 -5.4564052885e+02 5.4564052885e+02 0.0000000000e+00 0.0000e+00 1.0000e+00
       25  2    1    2    0    0 +0.0000000000e+00 +0.0000000000e+00 -5.3848151153e+02 5.5279954618e+02 1.2500000000e+02 0.0000e+00 0.0000e+00
      -15  1    3    3    0    0 -5.3177229648e+01 +2.8081160043e+01 -3.4412473379e+02 3.4934418478e+02 1.7770000000e+00 0.0000e+00 1.0000e+00
       15  1    3    3    0    0 +5.3177229648e+01 -2.8081160044e+01 -1.9435677778e+02 2.0345536144e+02 1.7770000000e+00 0.0000e+00 1.0000e+00
       22  1    3    3    0    0 -2.8084893378e-10 +7.3812309241e-10 -7.5853503930e-09 7.6263518414e-09 0.0000000000e+00 0.0000e+00 1.0000e+00
<mgrwt>
<rscale>  2 0.12500000E+03</rscale>
<asrwt>0</asrwt>
<pdfrwt beam="1">  1       21 0.10527968E-02 0.12500000E+03</pdfrwt>
<pdfrwt beam="2">  1       21 0.80241244E-01 0.12500000E+03</pdfrwt>
<totfact> 0.41606287E+06</totfact>
</mgrwt>
</event>
<event>
 6      0 +4.1053447e-01 1.25000000e+02 7.54677100e-03 1.12640300e-01
       21 -1    0    0  502  501 +0.0000000000e+00 +0.0000000000e+00 +5.0395066317e+01 5.0395066317e+01 0.0000000000e+00 0.0000e+00 -1.0000e+00
       21 -1    0    0  501  502 -0.0000000000e+00 -0.0000000000e+00 -7.7512548063e+01 7.7512548063e+01 0.0000000000e+00 0.0000e+00 -1.0000e+00
       25  2    1    2    0    0 +0.0000000000e+00 +0.0000000000e+00 -2.7117481746e+01 1.2790761438e+02 1.2500000000e+02 0.0000e+00 0.0000e+00
      -15  1    3    3    0    0 +3.7076766423e+00 +6.2163192828e+01 -1.8683415646e+01 6.5040273354e+01 1.7770000000e+00 0.0000e+00 -1.0000e+00
       15  1    3    3    0    0 -3.7076748615e+00 -6.2163200629e+01 -8.4340641731e+00 6.2867332795e+01 1.7770000000e+00 0.0000e+00 -1.0000e+00
       22  1    3    3    0    0 -1.7808070121e-06 +7.8014852802e-06 -1.9265332230e-06 8.2307943997e-06 0.0000000000e+00 0.0000e+00 -1.0000e+00
<mgrwt>
<rscale>  2 0.12500000E+03</rscale>
<asrwt>0</asrwt>
<pdfrwt beam="1">  1       21 0.74110392E-02 0.12500000E+03</pdfrwt>
<pdfrwt beam="2">  1       21 0.11398904E-01 0.12500000E+03</pdfrwt>
<totfact> 0.88473957E+06</totfact>
</mgrwt>
</event>
<event>
 6      0 +4.1053447e-01 1.25000000e+02 7.54677100e-03 1.12640300e-01
       21 -1    0    0  502  501 +0.0000000000e+00 +0.0000000000e+00 +3.9631762631e+02 3.9631762631e+02 0.0000000000e+00 0.0000e+00 1.0000e+00
       21 -1    0    0  501  502 -0.0000000000e+00 -0.0000000000e+00 -9.8563620205e+00 9.8563620205e+00 0.0000000000e+00 0.0000e+00 1.0000e+00
       25  2    1    2    0    0 +0.0000000000e+00 +0.0000000000e+00 +3.8646126429e+02 4.0617398833e+02 1.2500000000e+02 0.0000e+00 0.0000e+00
      -15  1    3    3    0    0 +1.2262623353e+01 -4.9417766656e+01 +7.5595617836e+01 9.1161081377e+01 1.7770000000e+00 0.0000e+00 1.0000e+00
       15  1    3    3    0    0 -1.2262652096e+01 +4.9417891911e+01 +3.1086541651e+02 3.1501264353e+02 1.7770000000e+00 0.0000e+00 1.0000e+00
       22  1    3    3    0    0 +2.8742369020e-05 -1.2525440559e-04 +2.2995752138e-04 2.6342978483e-04 0.0000000000e+00 0.0000e+00 1.0000e+00
<mgrwt>
<rscale>  2 0.12500000E+03</rscale>
<asrwt>0</asrwt>
<pdfrwt beam="1">  1       21 0.58281993E-01 0.12500000E+03</pdfrwt>
<pdfrwt beam="2">  1       21 0.14494653E-02 0.12500000E+03</pdfrwt>
<totfact> 0.53089447E+06</totfact>
</mgrwt>
</event>
<event>
 6      0 +4.1053447e-01 1.25000000e+02 7.54677100e-03 1.12640300e-01
       21 -1    0    0  502  501 +0.0000000000e+00 +0.0000000000e+00 +3.8680346175e+01 3.8680346175e+01 0.0000000000e+00 0.0000e+00 1.0000e+00
       21 -1    0    0  501  502 -0.0000000000e+00 -0.0000000000e+00 -1.0098797933e+02 1.0098797933e+02 0.0000000000e+00 0.0000e+00 1.0000e+00
       25  2    1    2    0    0 +0.0000000000e+00 +0.0000000000e+00 -6.2307633157e+01 1.3966832551e+02 1.2500000000e+02 0.0000e+00 0.0000e+00
      -15  1    3    3    0    0 +5.8222593718e+01 -2.1920443857e+01 -2.4762829119e+01 6.6983070347e+01 1.7770000000e+00 0.0000e+00 1.0000e+00
       15  1    3    3    0    0 -5.8222593717e+01 +2.1920443855e+01 -3.7544804033e+01 7.2685255154e+01 1.7770000000e+00 0.0000e+00 1.0000e+00
       22  1    3    3    0    0 -3.9309044558e-10 +2.1637808512e-09 -2.7555280859e-09 3.5255358036e-09 0.0000000000e+00 0.0000e+00 -1.0000e+00
<mgrwt>
<rscale>  2 0.12500000E+03</rscale>
<asrwt>0</asrwt>
<pdfrwt beam="1">  1       21 0.56882863E-02 0.12500000E+03</pdfrwt>
<pdfrwt beam="2">  1       21 0.14851173E-01 0.12500000E+03</pdfrwt>
<totfact> 0.86397634E+06</totfact>
</mgrwt>
</event>
<event>
 6      0 +4.1053447e-01 1.25000000e+02 7.54677100e-03 1.12640300e-01
       21 -1    0    0  502  501 +0.0000000000e+00 +0.0000000000e+00 +1.2425517705e+00 1.2425517705e+00 0.0000000000e+00 0.0000e+00 -1.0000e+00
       21 -1    0    0  501  502 -0.0000000000e+00 -0.0000000000e+00 -3.1437321910e+03 3.1437321910e+03 0.0000000000e+00 0.0000e+00 -1.0000e+00
       25  2    1    2    0    0 +0.0000000000e+00 +0.0000000000e+00 -3.1424896392e+03 3.1449747427e+03 1.2500000000e+02 0.0000e+00 0.0000e+00
      -15  1    3    3    0    0 +8.3083067787e+00 -2.3229854316e+01 -3.0019007377e+03 3.0020026401e+03 1.7770000000e+00 0.0000e+00 1.0000e+00
       15  1    3    3    0    0 -8.0552574430e+00 +1.4939118672e+01 -7.8636185066e+01 8.0466587910e+01 1.7770000000e+00 0.0000e+00 1.0000e+00
       22  1    3    3    0    0 -2.5304933567e-01 +8.2907356445e+00 -6.1952742385e+01 6.2505540718e+01 0.0000000000e+00 0.0000e+00 1.0000e+00
<mgrwt>
<rscale>  2 0.12500000E+03</rscale>
<asrwt>0</asrwt>
<pdfrwt beam="1">  1       21 0.18272542E-03 0.12500000E+03</pdfrwt>
<pdfrwt beam="2">  1       21 0.46232060E+00 0.12500000E+03</pdfrwt>
<totfact> 0.10642565E+05</totfact>
</mgrwt>
</event>
<event>
 6      0 +4.1053447e-01 1.25000000e+02 7.54677100e-03 1.12640300e-01
       21 -1    0    0  502  501 +0.0000000000e+00 +0.0000000000e+00 +9.6221112435e+00 9.6221112435e+00 0.0000000000e+00 0.0000e+00 1.0000e+00
       21 -1    0    0  501  502 -0.0000000000e+00 -0.0000000000e+00 -4.0596599864e+02 4.0596599864e+02 0.0000000000e+00 0.0000e+00 1.0000e+00
       25  2    1    2    0    0 +0.0000000000e+00 +0.0000000000e+00 -3.9634388740e+02 4.1558810989e+02 1.2500000000e+02 0.0000e+00 0.0000e+00
      -15  1    3    3    0    0 -3.7569404853e+01 +1.6069824750e+01 -3.5528497892e+02 3.5763147711e+02 1.7770000000e+00 0.0000e+00 1.0000e+00
       15  1    3    3    0    0 +3.7567498480e+01 -1.6061689968e+01 -4.1051238802e+01 5.7945291119e+01 1.7770000000e+00 0.0000e+00 1.0000e+00
       22  1    3    3    0    0 +1.9063732529e-03 -8.1347820122e-03 -7.6696459865e-03 1.1341622764e-02 0.0000000000e+00 0.0000e+00 1.0000e+00
<mgrwt>
<rscale>  2 0.12500000E+03</rscale>
<asrwt>0</asrwt>
<pdfrwt beam="1">  1       21 0.14150170E-02 0.12500000E+03</pdfrwt>
<pdfrwt beam="2">  1       21 0.59700855E-01 0.12500000E+03</pdfrwt>
<totfact> 0.52240141E+06</totfact>
</mgrwt>
</event>
<event>
 6      0 +4.1053447e-01 1.25000000e+02 7.54677100e-03 1.12640300e-01
       21 -1    0    0  502  501 +0.0000000000e+00 +0.0000000000e+00 +3.5497736820e+02 3.5497736820e+02 0.0000000000e+00 0.0000e+00 -1.0000e+00
       21 -1    0    0  501  502 -0.0000000000e+00 -0.0000000000e+00 -1.1004222663e+01 1.1004222663e+01 0.0000000000e+00 0.0000e+00 -1.0000e+00
       25  2    1    2    0    0 +0.0000000000e+00 +0.0000000000e+00 +3.4397314554e+02 3.6598159086e+02 1.2500000000e+02 0.0000e+00 0.0000e+00
      -15  1    3    3    0    0 -4.0692118485e+01 -4.7349665870e+01 +1.7382551998e+02 1.8470600556e+02 1.7770000000e+00 0.0000e+00 1.0000e+00
       15  1    3    3    0    0 +2.6407494315e+01 +3.2475734674e+01 +1.1198296270e+02 1.1956325005e+02 1.7770000000e+00 0.0000e+00 1.0000e+00
       22  1    3    3    0    0 +1.4284624171e+01 +1.4873931196e+01 +5.8164662905e+01 6.1712335296e+01 0.0000000000e+00 0.0000e+00 1.0000e+00
<mgrwt>
<rscale>  2 0.12500000E+03</rscale>
<asrwt>0</asrwt>
<pdfrwt beam="1">  1       21 0.52202547E-01 0.12500000E+03</pdfrwt>
<pdfrwt beam="2">  1       21 0.16182683E-02 0.12500000E+03</pdfrwt>
<totfact> 0.56917524E+06</totfact>
</mgrwt>
</event>
<event>
 6      0 +4.1053447e-01 1.25000000e+02 7.54677100e-03 1.12640300e-01
       21 -1    0    0  502  501 +0.0000000000e+00 +0.0000000000e+00 +5.2885883794e+01 5.2885883794e+01 0.0000000000e+00 0.0000e+00 -1.0000e+00
       21 -1    0    0  501  502 -0.0000000000e+00 -0.0000000000e+00 -7.3861864826e+01 7.3861864826e+01 0.0000000000e+00 0.0000e+00 -1.0000e+00
       25  2    1    2    0    0 +0.0000000000e+00 +0.0000000000e+00 -2.0975981032e+01 1.2674774862e+02 1.2500000000e+02 0.0000e+00 0.0000e+00
      -15  1    3    3    0    0 +1.6856116503e+01 -4.0752492666e+01 +3.4360369133e+01 5.5934667408e+01 1.7770000000e+00 0.0000e+00 1.0000e+00
       15  1    3    3    0    0 -1.6862718447e+01 +4.0764291345e+01 -5.5344536996e+01 7.0797275559e+01 1.7770000000e+00 0.0000e+00 1.0000e+00
       22  1    3    3    0    0 +6.6019442854e-03 -1.1798678588e-02 +8.1868300615e-03 1.5805653142e-02 0.0000000000e+00 0.0000e+00 1.0000e+00
<mgrwt>
<rscale>  2 0.12500000E+03</rscale>
<asrwt>0</asrwt>
<pdfrwt beam="1">  1       21 0.77773359E-02 0.12500000E+03</pdfrwt>
<pdfrwt beam="2">  1       21 0.10862039E-01 0.12500000E+03</pdfrwt>
<totfact> 0.88678071E+06</totfact>
</mgrwt>
</event>
<event>
 6      0 +4.1053447e-01 1.25000000e+02 7.54677100e-03 1.12640300e-01
       21 -1    0    0  502  501 +0.0000000000e+00 +0.0000000000e+00 +7.0463292792e+01 7.0463292792e+01 0.0000000000e+00 0.0000e+00 -1.0000e+00
       21 -1    0    0  501  502 -0.0000000000e+00 -0.0000000000e+00 -5.5436665606e+01 5.5436665606e+01 0.0000000000e+00 0.0000e+00 -1.0000e+00
       25  2    1    2    0    0 +0.0000000000e+00 +0.0000000000e+00 +1.5026627187e+01 1.2589995840e+02 1.2500000000e+02 0.0000e+00 0.0000e+00
      -15  1    3    3    0    0 +9.0088448788e+00 +6.3937998258e+00 +6.9446261831e+01 7.0341886338e+01 1.7770000000e+00 0.0000e+00 1.0000e+00
       15  1    3    3    0    0 -9.0088432811e+00 -6.3935271348e+00 -5.4419106243e+01 5.5557477442e+01 1.7770000000e+00 0.0000e+00 1.0000e+00
       22  1    3    3    0    0 -1.5977322972e-06 -2.7269095733e-04 -5.2840149893e-04 5.9461841127e-04 0.0000000000e+00 0.0000e+00 1.0000e+00
<mgrwt>
<rscale>  2 0.12500000E+03</rscale>
<asrwt>0</asrwt>
<pdfrwt beam="1">  1       21 0.10362249E-01 0.12500000E+03</pdfrwt>
<pdfrwt beam="2">  1       21 0.81524508E-02 0.12500000E+03</pdfrwt>
<totfact> 0.88829896E+06</totfact>
</mgrwt>
</event>
<event>
 6      0 +4.1053447e-01 1.25000000e+02 7.54677100e-03 1.12640300e-01
       21 -1    0    0  502  501 +0.0000000000e+00 +0.0000000000e+00 +2.3260925898e+01 2.3260925898e+01 0.0000000000e+00 0.0000e+00 1.0000e+00
       21 -1    0    0  501  502 -0.0000000000e+00 -0.0000000000e+00 -1.6793183630e+02 1.6793183630e+02 0.0000000000e+00 0.0000e+00 1.0000e+00
       25  2    1    2    0    0 +0.0000000000e+00 +0.0000000000e+00 -1.4467091040e+02 1.9119276219e+02 1.2500000000e+02 0.0000e+00 0.0000e+00
      -15  1    3    3    0    0 +1.0453494690e+01 +1.9426395047e+01 -2.7014545786e+01 3.4922826185e+01 1.7770000000e+00 0.0000e+00 -1.0000e+00
       15  1    3    3    0    0 +3.1851892863e+01 -5.8014850083e+00 -2.1364038495e+00 3.2494957420e+01 1.7770000000e+00 0.0000e+00 -1.0000e+00
       22  1    3    3    0    0 -4.2305387554e+01 -1.3624910038e+01 -1.1551996077e+02 1.2377497860e+02 0.0000000000e+00 0.0000e+00 -1.0000e+00
<mgrwt>
<rscale>  2 0.12500000E+03</rscale>
<asrwt>0</asrwt>
<pdfrwt beam="1">  1       21 0.34207245E-02 0.12500000E+03</pdfrwt>
<pdfrwt beam="2">  1       21 0.24695858E-01 0.12500000E+03</pdfrwt>
<totfact> 0.78119801E+06</totfact>
</mgrwt>
</event>
<event>
 6      0 +4.1053447e-01 1.25000000e+02 7.54677100e-03 1.12640300e-01
       21 -1    0    0  502  501 +0.0000000000e+00 +0.0000000000e+00 +4.0363364311e+02 4.0363364311e+02 0.0000000000e+00 0.0000e+00 1.0000e+00
       21 -1    0    0  501  502 -0.0000000000e+00 -0.0000000000e+00 -9.6777116246e+00 9.6777116246e+00 0.0000000000e+00 0.0000e+00 1.0000e+00
       25  2    1    2    0    0 +0.0000000000e+00 +0.0000000000e+00 +3.9395593148e+02 4.1331135473e+02 1.2500000000e+02 0.0000e+00 0.0000e+00
      -15  1    3    3    0    0 +4.8581920294e+01 +3.0861257238e+01 +2.1274784860e+02 2.2040286974e+02 1.7770000000e+00 0.0000e+00 1.0000e+00
       15  1    3    3    0    0 -5.2775899566e+01 -3.1822387453e+01 +1.6511209042e+02 1.7624732636e+02 1.7770000000e+00 0.0000e+00 1.0000e+00
       22  1    3    3    0    0 +4.1939792723e+00 +9.6113021476e-01 +1.6095992454e+01 1.6661158619e+01 0.0000000000e+00 0.0000e+00 1.0000e+00
<mgrwt>
<rscale>  2 0.12500000E+03</rscale>
<asrwt>0</asrwt>
<pdfrwt beam="1">  1       21 0.59357877E-01 0.12500000E+03</pdfrwt>
<pdfrwt beam="2">  1       21 0.14231932E-02 0.12500000E+03</pdfrwt>
<totfact> 0.52443959E+06</totfact>
</mgrwt>
</event>
<event>
 6      0 +4.1053447e-01 1.25000000e+02 7.54677100e-03 1.12640300e-01
       21 -1    0    0  502  501 +0.0000000000e+00 +0.0000000000e+00 +9.9527833878e+01 9.9527833878e+01 0.0000000000e+00 0.0000e+00 1.0000e+00
       21 -1    0    0  501  502 -0.0000000000e+00 -0.0000000000e+00 -3.9247814885e+01 3.9247814885e+01 0.0000000000e+00 0.0000e+00 1.0000e+00
       25  2    1    2    0    0 +0.0000000000e+00 +0.0000000000e+00 +6.0280018993e+01 1.3877564876e+02 1.2500000000e+02 0.0000e+00 0.0000e+00
      -15  1    3    3    0    0 +6.2105578629e+01 +5.5485179135e+00 +2.5811159701e+01 6.7507500635e+01 1.7770000000e+00 0.0000e+00 1.0000e+00
       15  1    3    3    0    0 -6.2105578625e+01 -5.5485179118e+00 +3.4468859290e+01 7.1268148125e+01 1.7770000000e+00 0.0000e+00 1.0000e+00
       22  1    3    3    0    0 -3.8625951674e-09 -1.6776197953e-09 +3.4927515567e-09 5.4711390991e-09 0.0000000000e+00 0.0000e+00 1.0000e+00
<mgrwt>
<rscale>  2 0.12500000E+03</rscale>
<asrwt>0</asrwt>
<pdfrwt beam="1">  1       21 0.14636446E-01 0.12500000E+03</pdfrwt>
<pdfrwt beam="2">  1       21 0.57717375E-02 0.12500000E+03</pdfrwt>
<totfact> 0.86551700E+06</totfact>
</mgrwt>
</event>
<event>
 6      0 +4.1053447e-01 1.25000000e+02 7.54677100e-03 1.12640300e-01
       21 -1    0    0  502  501 +0.0000000000e+00 +0.0000000000e+00 +5.5360847691e+00 5.5360847691e+00 0.0000000000e+00 0.0000e+00 -1.0000e+00
       21 -1    0    0  501  502 -0.0000000000e+00 -0.0000000000e+00 -7.0559793843e+02 7.0559793843e+02 0.0000000000e+00 0.0000e+00 -1.0000e+00
       25  2    1    2    0    0 +0.0000000000e+00 +0.0000000000e+00 -7.0006185366e+02 7.1113402320e+02 1.2500000000e+02 0.0000e+00 0.0000e+00
      -15  1    3    3    0    0 -4.4592677014e+01 +2.9458374339e+01 -1.6596599082e+02 1.7436791706e+02 1.7770000000e+00 0.0000e+00 -1.0000e+00
       15  1    3    3    0    0 +4.4592681668e+01 -2.9458377461e+01 -5.3409584467e+02 5.3676608712e+02 1.7770000000e+00 0.0000e+00 -1.0000e+00
       22  1    3    3    0    0 -4.6540443313e-06 +3.1219413527e-06 -1.8109283827e-05 1.8956603260e-05 0.0000000000e+00 0.0000e+00 1.0000e+00
<mgrwt>
<rscale>  2 0.12500000E+03</rscale>
<asrwt>0</asrwt>
<pdfrwt beam="1">  1       21 0.81413127E-03 0.12500000E+03</pdfrwt>
<pdfrwt beam="2">  1       21 0.10376426E+00 0.12500000E+03</pdfrwt>
<totfact> 0.32352988E+06</totfact>
</mgrwt>
</event>
<event>
 6      0 +4.1053447e-01 1.25000000e+02 7.54677100e-03 1.12640300e-01
       21 -1    0    0  502  501 +0.0000000000e+00 +0.0000000000e+00 +1.1715754827e+01 1.1715754827e+01 0.0000000000e+00 0.0000e+00 1.0000e+00
       21 -1    0    0  501  502 -0.0000000000e+00 -0.0000000000e+00 -3.3341855114e+02 3.3341855114e+02 0.0000000000e+00 0.0000e+00 1.0000e+00
       25  2    1    2    0    0 +0.0000000000e+00 +0.0000000000e+00 -3.2170279631e+02 3.4513430596e+02 1.2500000000e+02 0.0000e+00 0.0000e+00
      -15  1    3    3    0    0 +5.3910405604e+01 +8.9487588055e+00 -2.4444769348e+02 2.5048801307e+02 1.7770000000e+00 0.0000e+00 1.0000e+00
       15  1    3    3    0    0 -5.3910405594e+01 -8.9487588040e+00 -7.7255102843e+01 9.4646292900e+01 1.7770000000e+00 0.0000e+00 1.0000e+00
       22  1    3    3    0    0 -1.0532302955e-08 -1.5753893597e-09 -2.0148705410e-08 2.2789944863e-08 0.0000000000e+00 0.0000e+00 1.0000e+00
<mgrwt>
<rscale>  2 0.12500000E+03</rscale>
<asrwt>0</asrwt>
<pdfrwt beam="1">  1       21 0.17229055E-02 0.12500000E+03</pdfrwt>
<pdfrwt beam="2">  1       21 0.49032130E-01 0.12500000E+03</pdfrwt>
<totfact> 0.59030027E+06</totfact>
</mgrwt>
</event>
<event>
 6      0 +4.1053447e-01 1.25000000e+02 7.54677100e-03 1.12640300e-01
       21 -1    0    0  502  501 +0.0000000000e+00 +0.0000000000e+00 +2.0667509713e+02 2.0667509713e+02 0.0000000000e+00 0.0000e+00 -1.0000e+00
       21 -1    0    0  501  502 -0.0000000000e+00 -0.0000000000e+00 -1.8900438680e+01 1.8900438680e+01 0.0000000000e+00 0.0000e+00 -1.0000e+00
       25  2    1    2    0    0 +0.0000000000e+00 +0.0000000000e+00 +1.8777465845e+02 2.2557553581e+02 1.2500000000e+02 0.0000e+00 0.0000e+00
      -15  1    3    3    0    0 +3.0121314106e-01 +4.6150444280e+01 +1.7897935324e+01 4.9532293047e+01 1.7770000000e+00 0.0000e+00 1.0000e+00
       15  1    3    3    0    0 -3.0332321122e-01 -4.6088786235e+01 +1.6964465275e+02 1.7580311191e+02 1.7770000000e+00 0.0000e+00 1.0000e+00
       22  1    3    3    0    0 +2.1100701626e-03 -6.1658045181e-02 +2.3207037585e-01 2.4013085241e-01 0.0000000000e+00 0.0000e+00 -1.0000e+00
<mgrwt>
<rscale>  2 0.12500000E+03</rscale>
<asrwt>0</asrwt>
<pdfrwt beam="1">  1       21 0.30393395E-01 0.12500000E+03</pdfrwt>
<pdfrwt beam="2">  1       21 0.27794764E-02 0.12500000E+03</pdfrwt>
<totfact> 0.73233619E+06</totfact>
</mgrwt>
</event>
<event>
 6      0 +4.1053447e-01 1.25000000e+02 7.54677100e-03 1.12640300e-01
       21 -1    0    0  502  501 +0.0000000000e+00 +0.0000000000e+00 +2.3561330603e+02 2.3561330603e+02 0.0000000000e+00 0.0000e+00 -1.0000e+00
       21 -1    0    0  501  502 -0.0000000000e+00 -0.0000000000e+00 -1.6579072149e+01 1.6579072149e+01 0.0000000000e+00 0.0000e+00 -1.0000e+00
       25  2    1    2    0    0 +0.0000000000e+00 +0.0000000000e+00 +2.1903423388e+02 2.5219237818e+02 1.2500000000e+02 0.0000e+00 0.0000e+00
      -15  1    3    3    0    0 +3.8838179253e+01 +4.8870937985e+01 +1.1458837013e+02 1.3050067067e+02 1.7770000000e+00 0.0000e+00 -1.0000e+00
       15  1    3    3    0    0 -3.8838176412e+01 -4.8870946878e+01 +1.0444580847e+02 1.2169165145e+02 1.7770000000e+00 0.0000e+00 -1.0000e+00
       22  1    3    3    0    0 -2.8408511205e-06 +8.8928457176e-06 +5.5277377118e-05 5.6060160195e-05 0.0000000000e+00 0.0000e+00 1.0000e+00
<mgrwt>
<rscale>  2 0.12500000E+03</rscale>
<asrwt>0</asrwt>
<pdfrwt beam="1">  1       21 0.34649014E-01 0.12500000E+03</pdfrwt>
<pdfrwt beam="2">  1       21 0.24380990E-02 0.12500000E+03</pdfrwt>
<totfact> 0.69722157E+06</totfact>
</mgrwt>
</event>
<event>
 6      0 +4.1053447e-01 1.25000000e+02 7.54677100e-03 1.12640300e-01
       21 -1    0    0  502  501 +0.0000000000e+00 +0.0000000000e+00 +7.2468062622e+02 7.2468062622e+02 0.0000000000e+00 0.0000e+00 1.0000e+00
       21 -1    0    0  501  502 -0.0000000000e+00 -0.0000000000e+00 -5.3903055479e+00 5.3903055479e+00 0.0000000000e+00 0.0000e+00 1.0000e+00
       25  2    1    2    0    0 +0.0000000000e+00 +0.0000000000e+00 +7.1929032067e+02 7.3007093177e+02 1.2500000000e+02 0.0000e+00 0.0000e+00
      -15  1    3    3    0    0 -3.6871538402e+01 +4.7102504856e+01 +4.6492711355e+02 4.6876277044e+02 1.7770000000e+00 0.0000e+00 -1.0000e+00
       15  1    3    3    0    0 +3.6871538308e+01 -4.7102504646e+01 +2.5436320618e+02 2.6130816036e+02 1.7770000000e+00 0.0000e+00 -1.0000e+00
       22  1    3    3    0    0 +9.3252713491e-08 -2.0966539716e-07 +7.9347104723e-07 8.2598544184e-07 0.0000000000e+00 0.0000e+00 -1.0000e+00
<mgrwt>
<rscale>  2 0.12500000E+03</rscale>
<asrwt>0</asrwt>
<pdfrwt beam="1">  1       21 0.10657061E+00 0.12500000E+03</pdfrwt>
<pdfrwt beam="2">  1       21 0.79269249E-03 0.12500000E+03</pdfrwt>
<totfact> 0.31430916E+06</totfact>
</mgrwt>
</event>
<event>
 6      0 +4.1053447e-01 1.25000000e+02 7.54677100e-03 1.12640300e-01
       21 -1    0    0  502  501 +0.0000000000e+00 +0.0000000000e+00 +2.7802825596e+01 2.7802825596e+01 0.0000000000e+00 0.0000e+00 1.0000e+00
       21 -1    0    0  501  502 -0.0000000000e+00 -0.0000000000e+00 -1.4049830966e+02 1.4049830966e+02 0.0000000000e+00 0.0000e+00 1.0000e+00
       25  2    1    2    0    0 +0.0000000000e+00 +0.0000000000e+00 -1.1269548407e+02 1.6830113526e+02 1.2500000000e+02 0.0000e+00 0.0000e+00
      -15  1    3    3    0    0 +5.4267628746e+01 -2.7914886203e+01 -3.8340275192e+01 7.2092654496e+01 1.7770000000e+00 0.0000e+00 -1.0000e+00
       15  1    3    3    0    0 -5.4267584207e+01 +2.7914880569e+01 -7.4355172257e+01 9.6208422828e+01 1.7770000000e+00 0.0000e+00 -1.0000e+00
       22  1    3    3    0    0 -4.4538479080e-05 +5.6343732663e-06 -3.6620316174e-05 5.7935048439e-05 0.0000000000e+00 0.0000e+00 -1.0000e+00
<mgrwt>
<rscale>  2 0.12500000E+03</rscale>
<asrwt>0</asrwt>
<pdfrwt beam="1">  1       21 0.40886508E-02 0.12500000E+03</pdfrwt>
<pdfrwt beam="2">  1       21 0.20661516E-01 0.12500000E+03</pdfrwt>
<totfact> 0.81634818E+06</totfact>
</mgrwt>
</event>
<event>
 6      0 +4.1053447e-01 1.25000000e+02 7.54677100e-03 1.12640300e-01
       21 -1    0    0  502  501 +0.0000000000e+00 +0.0000000000e+00 +9.0247631077e+01 9.0247631077e+01 0.0000000000e+00 0.0000e+00 -1.0000e+00
       21 -1    0    0  501  502 -0.0000000000e+00 -0.0000000000e+00 -4.3283684606e+01 4.3283684606e+01 0.0000000000e+00 0.0000e+00 -1.0000e+00
       25  2    1    2    0    0 +0.0000000000e+00 +0.0000000000e+00 +4.6963946470e+01 1.3353131568e+02 1.2500000000e+02 0.0000e+00 0.0000e+00
      -15  1    3    3    0    0 -4.6966260126e+01 -1.4396125437e+01 -1.7753236536e+01 5.2262923325e+01 1.7770000000e+00 0.0000e+00 1.0000e+00
       15  1    3    3    0    0 +4.6966266500e+01 +1.4396126752e+01 +6.4717185402e+01 8.1268385426e+01 1.7770000000e+00 0.0000e+00 1.0000e+00
       22  1    3    3    0    0 -6.3733259453e-06 -1.3147218537e-06 -2.3937865142e-06 6.9338294639e-06 0.0000000000e+00 0.0000e+00 1.0000e+00
<mgrwt>
<rscale>  2 0.12500000E+03</rscale>
<asrwt>0</asrwt>
<pdfrwt beam="1">  1       21 0.13271710E-01 0.12500000E+03</pdfrwt>
<pdfrwt beam="2">  1       21 0.63652477E-02 0.12500000E+03</pdfrwt>
<totfact> 0.87464011E+06</totfact>
</mgrwt>
</event>
<event>
 6      0 +4.1053447e-01 1.25000000e+02 7.54677100e-03 1.12640300e-01
       21 -1    0    0  502  501 +0.0000000000e+00 +0.0000000000e+00 +3.4614379721e+01 3.4614379721e+01 0.0000000000e+00 0.0000e+00 -1.0000e+00
       21 -1    0    0  501  502 -0.0000000000e+00 -0.0000000000e+00 -1.1285049831e+02 1.1285049831e+02 0.0000000000e+00 0.0000e+00 -1.0000e+00
       25  2    1    2    0    0 +0.0000000000e+00 +0.0000000000e+00 -7.8236118585e+01 1.4746487803e+02 1.2500000000e+02 0.0000e+00 0.0000e+00
      -15  1    3    3    0    0 +2.6407805458e+01 -3.5769502373e+01 -9.0894909315e+01 1.0120213317e+02 1.7770000000e+00 0.0000e+00 1.0000e+00
       15  1    3    3    0    0 -2.6407804761e+01 +3.5769543153e+01 +1.2658832734e+01 4.6262686312e+01 1.7770000000e+00 0.0000e+00 1.0000e+00
       22  1    3    3    0    0 -6.9686363459e-07 -4.0779411708e-05 -4.2000145429e-05 5.8544498070e-05 0.0000000000e+00 0.0000e+00 -1.0000e+00
<mgrwt>
<rscale>  2 0.12500000E+03</rscale>
<asrwt>0</asrwt>
<pdfrwt beam="1">  1       21 0.50903500E-02 0.12500000E+03</pdfrwt>
<pdfrwt beam="2">  1       21 0.16595661E-01 0.12500000E+03</pdfrwt>
<totfact> 0.85053153E+06</totfact>
</mgrwt>
</event>
<event>
 6      0 +4.1053447e-01 1.25000000e+02 7.54677100e-03 1.12640300e-01
       21 -1    0    0  502  501 +0.0000000000e+00 +0.0000000000e+00 +3.0950321940e+02 3.0950321940e+02 0.0000000000e+00 0.0000e+00 1.0000e+00
       21 -1    0    0  501  502 -0.0000000000e+00 -0.0000000000e+00 -1.2621031883e+01 1.2621031883e+01 0.0000000000e+00 0.0000e+00 1.0000e+00
       25  2    1    2    0    0 +0.0000000000e+00 +0.0000000000e+00 +2.9688218752e+02 3.2212425128e+02 1.2500000000e+02 0.0000e+00 0.0000e+00
      -15  1    3    3    0    0 -1.5313774504e+01 +5.0870286048e+01 +2.3315476658e+02 2.3913720037e+02 1.7770000000e+00 0.0000e+00 1.0000e+00
       15  1    3    3    0    0 +1.4919516428e+01 -4.9745871529e+01 +6.2320117949e+01 8.1143074472e+01 1.7770000000e+00 0.0000e+00 1.0000e+00
       22  1    3    3    0    0 +3.9425807616e-01 -1.1244145184e+00 +1.4073030236e+00 1.8439764749e+00 0.0000000000e+00 0.0000e+00 1.0000e+00
<mgrwt>
<rscale>  2 0.12500000E+03</rscale>
<asrwt>0</asrwt>
<pdfrwt beam="1">  1       21 0.45515174E-01 0.12500000E+03</pdfrwt>
<pdfrwt beam="2">  1       21 0.18560343E-02 0.12500000E+03</pdfrwt>
<totfact> 0.61474115E+06</totfact>
</mgrwt>
</event>
<event>
 6      0 +4.1053447e-01 1.25000000e+02 7.54677100e-03 1.12640300e-01
       21 -1    0    0  502  501 +0.0000000000e+00 +0.0000000000e+00 +1.6381509436e+01 1.6381509436e+01 0.0000000000e+00 0.0000e+00 -1.0000e+00
       21 -1    0    0  501  502 -0.0000000000e+00 -0.0000000000e+00 -2.3845482709e+02 2.3845482709e+02 0.0000000000e+00 0.0000e+00 -1.0000e+00
       25  2    1    2    0    0 +0.0000000000e+00 +0.0000000000e+00 -2.2207331765e+02 2.5483633653e+02 1.2500000000e+02 0.0000e+00 0.0000e+00
      -15  1    3    3    0    0 +4.5328916108e+01 +2.9216568860e+00 -2.3590316015e+01 5.1214328592e+01 1.7770000000e+00 0.0000e+00 1.0000e+00
       15  1    3    3    0    0 -4.5328963074e+01 -2.9217251357e+00 -1.9848286977e+02 2.0362185220e+02 1.7770000000e+00 0.0000e+00 1.0000e+00
       22  1    3    3    0    0 +4.6966089731e-05 +6.8249678678e-05 -1.3183386471e-04 1.5570484934e-04 0.0000000000e+00 0.0000e+00 1.0000e+00
<mgrwt>
<rscale>  2 0.12500000E+03</rscale>
<asrwt>0</asrwt>
<pdfrwt beam="1">  1       21 0.24090456E-02 0.12500000E+03</pdfrwt>
<pdfrwt beam="2">  1       21 0.35066885E-01 0.12500000E+03</pdfrwt>
<totfact> 0.69385477E+06</totfact>
</mgrwt>
</event>
<event>
 6      0 +4.1053447e-01 1.25000000e+02 7.54677100e-03 1.12640300e-01
       21 -1    0    0  502  501 +0.0000000000e+00 +0.0000000000e+00 +2.9507691005e+02 2.9507691005e+02 0.0000000000e+00 0.0000e+00 -1.0000e+00
       21 -1    0    0  501  502 -0.0000000000e+00 -0.0000000000e+00 -1.3238074098e+01 1.3238074098e+01 0.0000000000e+00 0.0000e+00 -1.0000e+00
       25  2    1    2    0    0 +0.0000000000e+00 +0.0000000000e+00 +2.8183883596e+02 3.0831498415e+02 1.2500000000e+02 0.0000e+00 0.0000e+00
      -15  1    3    3    0    0 +4.4917377803e+01 +3.8793463342e+01 +9.2800879687e+01 1.1017106983e+02 1.7770000000e+00 0.0000e+00 -1.0000e+00
       15  1    3    3    0    0 -4.4917370387e+01 -3.8793465663e+01 +1.8903791826e+02 1.9814387553e+02 1.7770000000e+00 0.0000e+00 -1.0000e+00
       22  1    3    3    0    0 -7.4163121578e-06 +2.3207387352e-06 +3.8046304821e-05 3.8831801720e-05 0.0000000000e+00 0.0000e+00 -1.0000e+00
<mgrwt>
<rscale>  2 0.12500000E+03</rscale>
<asrwt>0</asrwt>
<pdfrwt beam="1">  1       21 0.43393659E-01 0.12500000E+03</pdfrwt>
<pdfrwt beam="2">  1       21 0.19467758E-02 0.12500000E+03</pdfrwt>
<totfact> 0.63004185E+06</totfact>
</mgrwt>
</event>
<event>
 6      0 +4.1053447e-01 1.25000000e+02 7.54677100e-03 1.12640300e-01
       21 -1    0    0  502  501 +0.0000000000e+00 +0.0000000000e+00 +1.4670005174e+02 1.4670005174e+02 0.0000000000e+00 0.0000e+00 -1.0000e+00
       21 -1    0    0  501  502 -0.0000000000e+00 -0.0000000000e+00 -2.6627461638e+01 2.6627461638e+01 0.0000000000e+00 0.0000e+00 -1.0000e+00
       25  2    1    2    0    0 +0.0000000000e+00 +0.0000000000e+00 +1.2007259010e+02 1.7332751338e+02 1.2500000000e+02 0.0000e+00 0.0000e+00
      -15  1    3    3    0    0 -2.3371170805e+01 +8.9174159990e+00 +1.3941775694e+02 1.4165521738e+02 1.7770000000e+00 0.0000e+00 -1.0000e+00
       15  1    3    3    0    0 +2.3371187765e+01 -8.9174309465e+00 -1.9345244541e+01 3.1672215071e+01 1.7770000000e+00 0.0000e+00 -1.0000e+00
       22  1    3    3    0    0 -1.6960330954e-05 +1.4947583639e-05 +7.7697008007e-05 8.0919145670e-05 0.0000000000e+00 0.0000e+00 -1.0000e+00
<mgrwt>
<rscale>  2 0.12500000E+03</rscale>
<asrwt>0</asrwt>
<pdfrwt beam="1">  1       21 0.21573537E-01 0.12500000E+03</pdfrwt>
<pdfrwt beam="2">  1       21 0.39158033E-02 0.12500000E+03</pdfrwt>
<totfact> 0.80839447E+06</totfact>
</mgrwt>
</event>
<event>
 6      0 +4.1053447e-01 1.25000000e+02 7.54677100e-03 1.12640300e-01
       21 -1    0    0  502  501 +0.0000000000e+00 +0.0000000000e+00 +3.8282783016e+02 3.8282783016e+02 0.0000000000e+00 0.0000e+00 1.0000e+00
       21 -1    0    0  501  502 -0.0000000000e+00 -0.0000000000e+00 -1.0203673015e+01 1.0203673015e+01 0.0000000000e+00 0.0000e+00 1.0000e+00
       25  2    1    2    0    0 +0.0000000000e+00 +0.0000000000e+00 +3.7262415714e+02 3.9303150317e+02 1.2500000000e+02 0.0000e+00 0.0000e+00
      -15  1    3    3    0    0 +3.2704362755e+01 +2.9646220667e+01 +1.0102323689e+02 1.1026026421e+02 1.7770000000e+00 0.0000e+00 -1.0000e+00
       15  1    3    3    0    0 -2.7156728944e+01 -1.4985375045e+00 +3.4628025634e+01 4.4068031836e+01 1.7770000000e+00 0.0000e+00 -1.0000e+00
       22  1    3    3    0    0 -5.5476338113e+00 -2.8147683162e+01 +2.3697289462e+02 2.3870320713e+02 0.0000000000e+00 0.0000e+00 -1.0000e+00
<mgrwt>
<rscale>  2 0.12500000E+03</rscale>
<asrwt>0</asrwt>
<pdfrwt beam="1">  1       21 0.56298201E-01 0.12500000E+03</pdfrwt>
<pdfrwt beam="2">  1       21 0.15005404E-02 0.12500000E+03</pdfrwt>
<totfact> 0.54304545E+06</totfact>
</mgrwt>
</event>
<event>
 6      0 +4.1053447e-01 1.25000000e+02 7.54677100e-03 1.12640300e-01
       21 -1    0    0  502  501 +0.0000000000e+00 +0.0000000000e+00 +1.7125073379e+02 1.7125073379e+02 0.0000000000e+00 0.0000e+00 1.0000e+00
       21 -1    0    0  501  502 -0.0000000000e+00 -0.0000000000e+00 -2.2810121239e+01 2.2810121239e+01 0.0000000000e+00 0.0000e+00 1.0000e+00
       25  2    1    2    0    0 +0.0000000000e+00 +0.0000000000e+00 +1.4844061255e+02 1.9406085503e+02 1.2500000000e+02 0.0000e+00 0.0000e+00
      -15  1    3    3    0    0 -6.4676061726e+00 -6.0544218475e+01 +5.2504353493e+01 8.0419507492e+01 1.7770000000e+00 0.0000e+00 -1.0000e+00
       15  1    3    3    0    0 +6.4676062108e+00 +6.0544218517e+01 +9.5936259055e+01 1.1364134748e+02 1.7770000000e+00 0.0000e+00 -1.0000e+00
       22  1    3    3    0    0 -3.8127187278e-08 -4.1127196989e-08 -3.0822122659e-09 5.6166082063e-08 0.0000000000e+00 0.0000e+00 -1.0000e+00
<mgrwt>
<rscale>  2 0.12500000E+03</rscale>
<asrwt>0</asrwt>
<pdfrwt beam="1">  1       21 0.25183931E-01 0.12500000E+03</pdfrwt>
<pdfrwt beam="2">  1       21 0.33544297E-02 0.12500000E+03</pdfrwt>
<totfact> 0.77693690E+06</totfact>
</mgrwt>
</event>
<event>
 6      0 +4.1053447e-01 1.25000000e+02 7.54677100e-03 1.12640300e-01
       21 -1    0    0  502  501 +0.0000000000e+00 +0.0000000000e+00 +2.3158579021e+02 2.3158579021e+02 0.0000000000e+00 0.0000e+00 -1.0000e+00
       21 -1    0    0  501  502 -0.0000000000e+00 -0.0000000000e+00 -1.6867399319e+01 1.6867399319e+01 0.0000000000e+00 0.0000e+00 -1.0000e+00
       25  2    1    2    0    0 +0.0000000000e+00 +0.0000000000e+00 +2.1471839089e+02 2.4845318952e+02 1.2500000000e+02 0.0000e+00 0.0000e+00
      -15  1    3    3    0    0 +4.7729450048e+01 -3.8549876636e+01 +1.2978404861e+02 1.4356618819e+02 1.7770000000e+00 0.0000e+00 -1.0000e+00
       15  1    3    3    0    0 -4.0218523025e+01 +3.4128941289e+01 +7.4311444659e+01 9.1146380971e+01 1.7770000000e+00 0.0000e+00 -1.0000e+00
       22  1    3    3    0    0 -7.5109270237e+00 +4.4209353474e+00 +1.0622897650e+01 1.3740620386e+01 0.0000000000e+00 0.0000e+00 -1.0000e+00
<mgrwt>
<rscale>  2 0.12500000E+03</rscale>
<asrwt>0</asrwt>
<pdfrwt beam="1">  1       21 0.34056732E-01 0.12500000E+03</pdfrwt>
<pdfrwt beam="2">  1       21 0.24805000E-02 0.12500000E+03</pdfrwt>
<totfact> 0.70202417E+06</totfact>
</mgrwt>
</event>
<event>
 6      0 +4.1053447e-01 1.25000000e+02 7.54677100e-03 1.12640300e-01
       21 -1    0    0  502  501 +0.0000000000e+00 +0.0000000000e+00 +9.0895541768e+00 9.0895541768e+00 0.0000000000e+00 0.0000e+00 1.0000e+00
       21 -1    0    0  501  502 -0.0000000000e+00 -0.0000000000e+00 -4.2975155041e+02 4.2975155041e+02 0.0000000000e+00 0.0000e+00 1.0000e+00
       25  2    1    2    0    0 +0.0000000000e+00 +0.0000000000e+00 -4.2066199623e+02 4.3884110458e+02 1.2500000000e+02 0.0000e+00 0.0000e+00
      -15  1    3    3    0    0 +4.8701618484e+01 -1.3340990526e+01 -3.0155182653e+02 3.0575560745e+02 1.7770000000e+00 0.0000e+00 -1.0000e+00
       15  1    3    3    0    0 -5.1890801016e+01 +1.4325569765e+01 -9.9028478933e+01 1.1272832185e+02 1.7770000000e+00 0.0000e+00 -1.0000e+00
       22  1    3    3    0    0 +3.1891825319e+00 -9.8457923959e-01 -2.0081690806e+01 2.0357175323e+01 0.0000000000e+00 0.0000e+00 -1.0000e+00
<mgrwt>
<rscale>  2 0.12500000E+03</rscale>
<asrwt>0</asrwt>
<pdfrwt beam="1">  1       21 0.13366991E-02 0.12500000E+03</pdfrwt>
<pdfrwt beam="2">  1       21 0.63198758E-01 0.12500000E+03</pdfrwt>
<totfact> 0.50213775E+06</totfact>
</mgrwt>
</event>
<event>
 6      0 +4.1053447e-01 1.25000000e+02 7.54677100e-03 1.12640300e-01
       21 -1    0    0  502  501 +0.0000000000e+00 +0.0000000000e+00 +3.1393265276e+01 3.1393265276e+01 0.0000000000e+00 0.0000e+00 1.0000e+00
       21 -1    0    0  501  502 -0.0000000000e+00 -0.0000000000e+00 -1.2442955410e+02 1.2442955410e+02 0.0000000000e+00 0.0000e+00 1.0000e+00
       25  2    1    2    0    0 +0.0000000000e+00 +0.0000000000e+00 -9.3036288823e+01 1.5582281937e+02 1.2500000000e+02 0.0000e+00 0.0000e+00
      -15  1    3    3    0    0 +1.6067946268e+01 +3.5486757033e+01 +1.4368238053e+01 4.1558306218e+01 1.7770000000e+00 0.0000e+00 -1.0000e+00
       15  1    3    3    0    0 -1.6067946299e+01 -3.5486755843e+01 -1.0740452504e+02 1.1426451096e+02 1.7770000000e+00 0.0000e+00 -1.0000e+00
       22  1    3    3    0    0 +3.0960801736e-08 -1.1899035884e-06 -1.8443758048e-06 2.1951198670e-06 0.0000000000e+00 0.0000e+00 1.0000e+00
<mgrwt>
<rscale>  2 0.12500000E+03</rscale>
<asrwt>0</asrwt>
<pdfrwt beam="1">  1       21 0.46166567E-02 0.12500000E+03</pdfrwt>
<pdfrwt beam="2">  1       21 0.18298464E-01 0.12500000E+03</pdfrwt>
<totfact> 0.83660338E+06</totfact>
</mgrwt>
</event>
<event>
 6      0 +4.1053447e-01 1.25000000e+02 7.54677100e-03 1.12640300e-01
       21 -1    0    0  502  501 +0.0000000000e+00 +0.0000000000e+00 +8.8590100912e+00 8.8590100912e+00 0.0000000000e+00 0.0000e+00 1.0000e+00
       21 -1    0    0  501  502 -0.0000000000e+00 -0.0000000000e+00 -4.4093526927e+02 4.4093526927e+02 0.0000000000e+00 0.0000e+00 1.0000e+00
       25  2    1    2    0    0 +0.0000000000e+00 +0.0000000000e+00 -4.3207625918e+02 4.4979427936e+02 1.2500000000e+02 0.0000e+00 0.0000e+00
      -15  1    3    3    0    0 -5.7541836595e+01 +8.5256727337e+00 -2.9791402376e+02 3.0354517512e+02 1.7770000000e+00 0.0000e+00 -1.0000e+00
       15  1    3    3    0    0 +5.7532723186e+01 -8.5426966895e+00 -1.3414744406e+02 1.4622478032e+02 1.7770000000e+00 0.0000e+00 -1.0000e+00
       22  1    3    3    0    0 +9.1134088600e-03 +1.7023955866e-02 -1.4791385300e-02 2.4323946502e-02 0.0000000000e+00 0.0000e+00 1.0000e+00
<mgrwt>
<rscale>  2 0.12500000E+03</rscale>
<asrwt>0</asrwt>
<pdfrwt beam="1">  1       21 0.13027955E-02 0.12500000E+03</pdfrwt>
<pdfrwt beam="2">  1       21 0.64843429E-01 0.12500000E+03</pdfrwt>
<totfact> 0.49292632E+06</totfact>
</mgrwt>
</event>
<event>
 6      0 +4.1053447e-01 1.25000000e+02 7.54677100e-03 1.12640300e-01
       21 -1    0    0  502  501 +0.0000000000e+00 +0.0000000000e+00 +3.8792804961e+01 3.8792804961e+01 0.0000000000e+00 0.0000e+00 1.0000e+00
       21 -1    0    0  501  502 -0.0000000000e+00 -0.0000000000e+00 -1.0069521923e+02 1.0069521923e+02 0.0000000000e+00 0.0000e+00 1.0000e+00
       25  2    1    2    0    0 +0.0000000000e+00 +0.0000000000e+00 -6.1902414268e+01 1.3948802419e+02 1.2500000000e+02 0.0000e+00 0.0000e+00
      -15  1    3    3    0    0 -3.2187435151e+01 -2.3006499587e+01 +2.3002123244e+01 4.5799404009e+01 1.7770000000e+00 0.0000e+00 -1.0000e+00
       15  1    3    3    0    0 +3.2188017984e+01 +2.3007152445e+01 -8.4904826497e+01 9.3687698535e+01 1.7770000000e+00 0.0000e+00 -1.0000e+00
       22  1    3    3    0    0 -5.8283250125e-04 -6.5285743698e-04 +2.8898502978e-04 9.2164467392e-04 0.0000000000e+00 0.0000e+00 1.0000e+00
<mgrwt>
<rscale>  2 0.12500000E+03</rscale>
<asrwt>0</asrwt>
<pdfrwt beam="1">  1       21 0.57048243E-02 0.12500000E+03</pdfrwt>
<pdfrwt beam="2">  1       21 0.14808120E-01 0.12500000E+03</pdfrwt>
<totfact> 0.86428778E+06</totfact>
</mgrwt>
</event>
<event>
 6      0 +4.1053447e-01 1.25000000e+02 7.54677100e-03 1.12640300e-01
       21 -1    0    0  502  501 +0.0000000000e+00 +0.0000000000e+00 +4.2041676419e+00 4.2041676419e+00 0.0000000000e+00 0.0000e+00 1.0000e+00
       21 -1    0    0  501  502 -0.0000000000e+00 -0.0000000000e+00 -9.2913754463e+02 9.2913754463e+02 0.0000000000e+00 0.0000e+00 1.0000e+00
       25  2    1    2    0    0 +0.0000000000e+00 +0.0000000000e+00 -9.2493337698e+02 9.3334171227e+02 1.2500000000e+02 0.0000e+00 0.0000e+00
      -15  1    3    3    0    0 +4.5897405288e+01 +3.3167618356e+01 -6.5951342984e+02 6.6194243299e+02 1.7770000000e+00 0.0000e+00 1.0000e+00
       15  1    3    3    0    0 -4.5897405292e+01 -3.3167618360e+01 -2.6541994673e+02 2.7139927887e+02 1.7770000000e+00 0.0000e+00 1.0000e+00
       22  1    3    3    0    0 +3.3922321876e-09 +4.2264269727e-09 -7.2548325533e-08 7.2750460217e-08 0.0000000000e+00 0.0000e+00 1.0000e+00
<mgrwt>
<rscale>  2 0.12500000E+03</rscale>
<asrwt>0</asrwt>
<pdfrwt beam="1">  1       21 0.61825864E-03 0.12500000E+03</pdfrwt>
<pdfrwt beam="2">  1       21 0.13663816E+00 0.12500000E+03</pdfrwt>
<totfact> 0.23285958E+06</totfact>
</mgrwt>
</event>
<event>
 6      0 +4.1053447e-01 1.25000000e+02 7.54677100e-03 1.12640300e-01
       21 -1    0    0  502  501 +0.0000000000e+00 +0.0000000000e+00 +8.0905476829e+02 8.0905476829e+02 0.0000000000e+00 0.0000e+00 1.0000e+00
       21 -1    0    0  501  502 -0.0000000000e+00 -0.0000000000e+00 -4.8281651046e+00 4.8281651046e+00 0.0000000000e+00 0.0000e+00 1.0000e+00
       25  2    1    2    0    0 +0.0000000000e+00 +0.0000000000e+00 +8.0422660319e+02 8.1388293340e+02 1.2500000000e+02 0.0000e+00 0.0000e+00
      -15  1    3    3    0    0 -1.6189527153e+01 +5.9039459899e+01 +3.2192620524e+02 3.2770016473e+02 1.7770000000e+00 0.0000e+00 -1.0000e+00
       15  1    3    3    0    0 +1.6209469348e+01 -5.9068702399e+01 +4.8213986646e+02 4.8601838140e+02 1.7770000000e+00 0.0000e+00 -1.0000e+00
       22  1    3    3    0    0 -1.9942195403e-02 +2.9242500172e-02 +1.6053145005e-01 1.6438723012e-01 0.0000000000e+00 0.0000e+00 -1.0000e+00
<mgrwt>
<rscale>  2 0.12500000E+03</rscale>
<asrwt>0</asrwt>
<pdfrwt beam="1">  1       21 0.11897855E+00 0.12500000E+03</pdfrwt>
<pdfrwt beam="2">  1       21 0.71002484E-03 0.12500000E+03</pdfrwt>
<totfact> 0.27709270E+06</totfact>
</mgrwt>
</event>
<event>
 6      0 +4.1053447e-01 1.25000000e+02 7.54677100e-03 1.12640300e-01
       21 -1    0    0  502  501 +0.0000000000e+00 +0.0000000000e+00 +6.7985263425e+01 6.7985263425e+01 0.0000000000e+00 0.0000e+00 1.0000e+00
       21 -1    0    0  501  502 -0.0000000000e+00 -0.0000000000e+00 -5.7457304763e+01 5.7457304763e+01 0.0000000000e+00 0.0000e+00 1.0000e+00
       25  2    1    2    0    0 +0.0000000000e+00 +0.0000000000e+00 +1.0527958661e+01 1.2544256819e+02 1.2500000000e+02 0.0000e+00 0.0000e+00
      -15  1    3    3    0    0 +2.6610002408e+01 +2.9015903606e+01 -4.3416296013e+01 5.8635717602e+01 1.7770000000e+00 0.0000e+00 -1.0000e+00
       15  1    3    3    0    0 -2.6609999598e+01 -2.9015902971e+01 +5.3944252183e+01 6.6806846778e+01 1.7770000000e+00 0.0000e+00 -1.0000e+00
       22  1    3    3    0    0 -2.8103742036e-06 -6.3520309399e-07 +2.4904882751e-06 3.8084403610e-06 0.0000000000e+00 0.0000e+00 -1.0000e+00
<mgrwt>
<rscale>  2 0.12500000E+03</rscale>
<asrwt>0</asrwt>
<pdfrwt beam="1">  1       21 0.99978329E-02 0.12500000E+03</pdfrwt>
<pdfrwt beam="2">  1       21 0.84496036E-02 0.12500000E+03</pdfrwt>
<totfact> 0.88914201E+06</totfact>
</mgrwt>
</event>
<event>
 6      0 +4.1053447e-01 1.25000000e+02 7.54677100e-03 1.12640300e-01
       21 -1    0    0  502  501 +0.0000000000e+00 +0.0000000000e+00 +1.8060193217e+02 1.8060193217e+02 0.0000000000e+00 0.0000e+00 1.0000e+00
       21 -1    0    0  501  502 -0.0000000000e+00 -0.0000000000e+00 -2.1629059851e+01 2.1629059851e+01 0.0000000000e+00 0.0000e+00 1.0000e+00
       25  2    1    2    0    0 +0.0000000000e+00 +0.0000000000e+00 +1.5897287232e+02 2.0223099202e+02 1.2500000000e+02 0.0000e+00 0.0000e+00
      -15  1    3    3    0    0 +4.7486857340e+01 +3.9038642316e+01 +9.7507478662e+01 1.1528175631e+02 1.7770000000e+00 0.0000e+00 -1.0000e+00
       15  1    3    3    0    0 -4.7486854039e+01 -3.9038640071e+01 +6.1465387509e+01 8.6949228379e+01 1.7770000000e+00 0.0000e+00 -1.0000e+00
       22  1    3    3    0    0 -3.3007020523e-06 -2.2454164169e-06 +6.1506885332e-06 7.3326324301e-06 0.0000000000e+00 0.0000e+00 1.0000e+00
<mgrwt>
<rscale>  2 0.12500000E+03</rscale>
<asrwt>0</asrwt>
<pdfrwt beam="1">  1       21 0.26559107E-01 0.12500000E+03</pdfrwt>
<pdfrwt beam="2">  1       21 0.31807442E-02 0.12500000E+03</pdfrwt>
<totfact> 0.76494620E+06</totfact>
</mgrwt>
</event>
<event>
 6      0 +4.1053447e-01 1.25000000e+02 7.54677100e-03 1.12640300e-01
       21 -1    0    0  502  501 +0.0000000000e+00 +0.0000000000e+00 +4.8940548207e+01 4.8940548207e+01 0.0000000000e+00 0.0000e+00 1.0000e+00
       21 -1    0    0  501  502 -0.0000000000e+00 -0.0000000000e+00 -7.9816228937e+01 7.9816228937e+01 0.0000000000e+00 0.0000e+00 1.0000e+00
       25  2    1    2    0    0 +0.0000000000e+00 +0.0000000000e+00 -3.0875680729e+01 1.2875677714e+02 1.2500000000e+02 0.0000e+00 0.0000e+00
      -15  1    3    3    0    0 -9.2601798372e+00 -8.1634881762e+00 +2.1706841252e+01 2.5034738984e+01 1.7770000000e+00 0.0000e+00 1.0000e+00
       15  1    3    3    0    0 +3.9161376396e+01 -1.2490807216e+01 -5.3350675666e+01 6.7372739214e+01 1.7770000000e+00 0.0000e+00 1.0000e+00
       22  1    3    3    0    0 -2.9901196559e+01 +2.0654295392e+01 +7.6815368392e-01 3.6349298947e+01 0.0000000000e+00 0.0000e+00 1.0000e+00
<mgrwt>
<rscale>  2 0.12500000E+03</rscale>
<asrwt>0</asrwt>
<pdfrwt beam="1">  1       21 0.71971394E-02 0.12500000E+03</pdfrwt>
<pdfrwt beam="2">  1       21 0.11737681E-01 0.12500000E+03</pdfrwt>
<totfact> 0.88323027E+06</totfact>
</mgrwt>
</event>
<event>
 6      0 +4.1053447e-01 1.25000000e+02 7.54677100e-03 1.12640300e-01
       21 -1    0    0  502  501 +0.0000000000e+00 +0.0000000000e+00 +9.6365307541e+01 9.6365307541e+01 0.0000000000e+00 0.0000e+00 -1.0000e+00
       21 -1    0    0  501  502 -0.0000000000e+00 -0.0000000000e+00 -4.0535853614e+01 4.0535853614e+01 0.0000000000e+00 0.0000e+00 -1.0000e+00
       25  2    1    2    0    0 +0.0000000000e+00 +0.0000000000e+00 +5.5829453927e+01 1.3690116116e+02 1.2500000000e+02 0.0000e+00 0.0000e+00
      -15  1    3    3    0    0 +2.2293763529e+01 +3.7025946722e+01 +7.7322614783e+01 8.8599532216e+01 1.7770000000e+00 0.0000e+00 1.0000e+00
       15  1    3    3    0    0 -2.2293765212e+01 -3.7025949423e+01 -2.1493165698e+01 4.8301623147e+01 1.7770000000e+00 0.0000e+00 1.0000e+00
       22  1    3    3    0    0 +1.6833859197e-06 +2.7005057433e-06 +4.8378222512e-06 5.7905995854e-06 0.0000000000e+00 0.0000e+00 -1.0000e+00
<mgrwt>
<rscale>  2 0.12500000E+03</rscale>
<asrwt>0</asrwt>
<pdfrwt beam="1">  1       21 0.14171369E-01 0.12500000E+03</pdfrwt>
<pdfrwt beam="2">  1       21 0.59611549E-02 0.12500000E+03</pdfrwt>
<totfact> 0.86875119E+06</totfact>
</mgrwt>
</event>
<event>
 6      0 +4.1053447e-01 1.25000000e+02 7.54677100e-03 1.12640300e-01
       21 -1    0    0  502  501 +0.0000000000e+00 +0.0000000000e+00 +1.3013694843e+02 1.3013694843e+02 0.0000000000e+00 0.0000e+00 -1.0000e+00
       21 -1    0    0  501  502 -0.0000000000e+00 -0.0000000000e+00 -3.0016456103e+01 3.0016456103e+01 0.0000000000e+00 0.0000e+00 -1.0000e+00
       25  2    1    2    0    0 +0.0000000000e+00 +0.0000000000e+00 +1.0012049233e+02 1.6015340454e+02 1.2500000000e+02 0.0000e+00 0.0000e+00
      -15  1    3    3    0    0 +5.7581385190e+01 -8.0729897860e+00 +7.9341335603e+01 9.8381880185e+01 1.7770000000e+00 0.0000e+00 -1.0000e+00
       15  1    3    3    0    0 -5.7581364415e+01 +8.0730061371e+00 +2.0779139544e+01 6.1771492820e+01 1.7770000000e+00 0.0000e+00 -1.0000e+00
       22  1    3    3    0    0 -2.0774900495e-05 -1.6351049402e-05 +1.7177962321e-05 3.1528331650e-05 0.0000000000e+00 0.0000e+00 -1.0000e+00
<mgrwt>
<rscale>  2 0.12500000E+03</rscale>
<asrwt>0</asrwt>
<pdfrwt beam="1">  1       21 0.19137786E-01 0.12500000E+03</pdfrwt>
<pdfrwt beam="2">  1       21 0.44141848E-02 0.12500000E+03</pdfrwt>
<totfact> 0.82953688E+06</totfact>
</mgrwt>
</event>
<event>
 6      0 +4.1053447e-01 1.25000000e+02 7.54677100e-03 1.12640300e-01
       21 -1    0    0  502  501 +0.0000000000e+00 +0.0000000000e+00 +4.9620099590e+01 4.9620099590e+01 0.0000000000e+00 0.0000e+00 1.0000e+00
       21 -1    0    0  501  502 -0.0000000000e+00 -0.0000000000e+00 -7.8723139056e+01 7.8723139056e+01 0.0000000000e+00 0.0000e+00 1.0000e+00
       25  2    1    2    0    0 +0.0000000000e+00 +0.0000000000e+00 -2.9103039466e+01 1.2834323865e+02 1.2500000000e+02 0.0000e+00 0.0000e+00
      -15  1    3    3    0    0 -5.6948885957e+01 -2.5622312337e+01 -1.6448144183e+01 6.4601684787e+01 1.7770000000e+00 0.0000e+00 -1.0000e+00
       15  1    3    3    0    0 +5.6948897300e+01 +2.5622316659e+01 -1.2654896056e+01 6.3741541696e+01 1.7770000000e+00 0.0000e+00 -1.0000e+00
       22  1    3    3    0    0 -1.1342318653e-05 -4.3222607154e-06 +7.7327124068e-07 1.2162568748e-05 0.0000000000e+00 0.0000e+00 -1.0000e+00
<mgrwt>
<rscale>  2 0.12500000E+03</rscale>
<asrwt>0</asrwt>
<pdfrwt beam="1">  1       21 0.72970735E-02 0.12500000E+03</pdfrwt>
<pdfrwt beam="2">  1       21 0.11576932E-01 0.12500000E+03</pdfrwt>
<totfact> 0.88396882E+06</totfact>
</mgrwt>
</event>
<event>
 6      0 +4.1053447e-01 1.25000000e+02 7.54677100e-03 1.12640300e-01
       21 -1    0    0  502  501 +0.0000000000e+00 +0.0000000000e+00 +2.9565500088e+02 2.9565500088e+02 0.0000000000e+00 0.0000e+00 -1.0000e+00
       21 -1    0    0  501  502 -0.0000000000e+00 -0.0000000000e+00 -1.3212189844e+01 1.3212189844e+01 0.0000000000e+00 0.0000e+00 -1.0000e+00
       25  2    1    2    0    0 +0.0000000000e+00 +0.0000000000e+00 +2.8244281103e+02 3.0886719072e+02 1.2500000000e+02 0.0000e+00 0.0000e+00
      -15  1    3    3    0    0 -3.4297555310e+01 +6.8154966631e+00 +2.6914628175e+02 2.7141417060e+02 1.7770000000e+00 0.0000e+00 -1.0000e+00
       15  1    3    3    0    0 +3.4297555312e+01 -6.8154966657e+00 +1.3296529265e+01 3.7453020101e+01 1.7770000000e+00 0.0000e+00 -1.0000e+00
       22  1    3    3    0    0 -2.4438536145e-09 +2.5390007994e-09 +7.3276216974e-09 8.1309891950e-09 0.0000000000e+00 0.0000e+00 1.0000e+00
<mgrwt>
<rscale>  2 0.12500000E+03</rscale>
<asrwt>0</asrwt>
<pdfrwt beam="1">  1       21 0.43478673E-01 0.12500000E+03</pdfrwt>
<pdfrwt beam="2">  1       21 0.19429693E-02 0.12500000E+03</pdfrwt>
<totfact> 0.62942033E+06</totfact>
</mgrwt>
</event>
<event>
 6      0 +4.1053447e-01 1.25000000e+02 7.54677100e-03 1.12640300e-01
       21 -1    0    0  502  501 +0.0000000000e+00 +0.0000000000e+00 +2.0434579637e+01 2.0434579637e+01 0.0000000000e+00 0.0000e+00 -1.0000e+00
       21 -1    0    0  501  502 -0.0000000000e+00 -0.0000000000e+00 -1.9115881361e+02 1.9115881361e+02 0.0000000000e+00 0.0000e+00 -1.0000e+00
       25  2    1    2    0    0 +0.0000000000e+00 +0.0000000000e+00 -1.7072423397e+02 2.1159339325e+02 1.2500000000e+02 0.0000e+00 0.0000e+00
      -15  1    3    3    0    0 -4.5799246061e+01 -8.2074248623e+00 -1.5592796715e+02 1.6273174685e+02 1.7770000000e+00 0.0000e+00 -1.0000e+00
       15  1    3    3    0    0 +4.3203594793e+01 +7.6912000916e+00 -1.3845248503e+01 4.6049471191e+01 1.7770000000e+00 0.0000e+00 -1.0000e+00
       22  1    3    3    0    0 +2.5956512679e+00 +5.1622477068e-01 -9.5101830160e-01 2.8121751953e+00 0.0000000000e+00 0.0000e+00 1.0000e+00
<mgrwt>
<rscale>  2 0.12500000E+03</rscale>
<asrwt>0</asrwt>
<pdfrwt beam="1">  1       21 0.30050854E-02 0.12500000E+03</pdfrwt>
<pdfrwt beam="2">  1       21 0.28111589E-01 0.12500000E+03</pdfrwt>
<totfact> 0.75159963E+06</totfact>
</mgrwt>
</event>
<event>
 6      0 +4.1053447e-01 1.25000000e+02 7.54677100e-03 1.12640300e-01
       21 -1    0    0  502  501 +0.0000000000e+00 +0.0000000000e+00 +4.6290820681e+01 4.6290820681e+01 0.0000000000e+00 0.0000e+00 1.0000e+00
       21 -1    0    0  501  502 -0.0000000000e+00 -0.0000000000e+00 -8.4384980488e+01 8.4384980488e+01 0.0000000000e+00 0.0000e+00 1.0000e+00
       25  2    1    2    0    0 +0.0000000000e+00 +0.0000000000e+00 -3.8094159807e+01 1.3067580117e+02 1.2500000000e+02 0.0000e+00 0.0000e+00
      -15  1    3    3    0    0 -5.8894151172e+01 +7.6582469280e+00 +1.2220124067e+00 5.9429124440e+01 1.7770000000e+00 0.0000e+00 1.0000e+00
       15  1    3    3    0    0 +5.8894151276e+01 -7.6582469667e+00 -3.9316172233e+01 7.1246676618e+01 1.7770000000e+00 0.0000e+00 1.0000e+00
       22  1    3    3    0    0 -1.0356012804e-07 +3.8752322995e-08 +1.9539701534e-08 1.1228643102e-07 0.0000000000e+00 0.0000e+00 -1.0000e+00
<mgrwt>
<rscale>  2 0.12500000E+03</rscale>
<asrwt>0</asrwt>
<pdfrwt beam="1">  1       21 0.68074737E-02 0.12500000E+03</pdfrwt>
<pdfrwt beam="2">  1       21 0.12409556E-01 0.12500000E+03</pdfrwt>
<totfact> 0.87974815E+06</totfact>
</mgrwt>
</event>
<event>
 6      0 +4.1053447e-01 1.25000000e+02 7.54677100e-03 1.12640300e-01
       21 -1    0    0  502  501 +0.0000000000e+00 +0.0000000000e+00 +3.8606977079e+02 3.8606977079e+02 0.0000000000e+00 0.0000e+00 1.0000e+00
       21 -1    0    0  501  502 -0.0000000000e+00 -0.0000000000e+00 -1.0117989792e+01 1.0117989792e+01 0.0000000000e+00 0.0000e+00 1.0000e+00
       25  2    1    2    0    0 +0.0000000000e+00 +0.0000000000e+00 +3.7595178100e+02 3.9618776059e+02 1.2500000000e+02 0.0000e+00 0.0000e+00
      -15  1    3    3    0    0 +1.4440485480e+01 -6.0335847506e+01 +1.6499271720e+02 1.7628016500e+02 1.7770000000e+00 0.0000e+00 1.0000e+00
       15  1    3    3    0    0 -1.4046043162e+01 +5.8380136715e+01 +2.0296445678e+02 2.1166780609e+02 1.7770000000e+00 0.0000e+00 1.0000e+00
       22  1    3    3    0    0 -3.9444231835e-01 +1.9557107904e+00 +7.9946069709e+00 8.2397894426e+00 0.0000000000e+00 0.0000e+00 -1.0000e+00
<mgrwt>
<rscale>  2 0.12500000E+03</rscale>
<asrwt>0</asrwt>
<pdfrwt beam="1">  1       21 0.56774957E-01 0.12500000E+03</pdfrwt>
<pdfrwt beam="2">  1       21 0.14879399E-02 0.12500000E+03</pdfrwt>
<totfact> 0.54009532E+06</totfact>
</mgrwt>
</event>
<event>
 6      0 +4.1053447e-01 1.25000000e+02 7.54677100e-03 1.12640300e-01
       21 -1    0    0  502  501 +0.0000000000e+00 +0.0000000000e+00 +1.2288995124e+01 1.2288995124e+01 0.0000000000e+00 0.0000e+00 -1.0000e+00
       21 -1    0    0  501  502 -0.0000000000e+00 -0.0000000000e+00 -3.1786569696e+02 3.1786569696e+02 0.0000000000e+00 0.0000e+00 -1.0000e+00
       25  2    1    2    0    0 +0.0000000000e+00 +0.0000000000e+00 -3.0557670184e+02 3.3015469208e+02 1.2500000000e+02 0.0000e+00 0.0000e+00
      -15  1    3    3    0    0 +6.3877247919e-01 +4.4236798491e+01 -2.6929626670e+02 2.7291196265e+02 1.7770000000e+00 0.0000e+00 -1.0000e+00
       15  1    3    3    0    0 -6.3877247260e-01 -4.4236798485e+01 -3.6280435157e+01 5.7242729448e+01 1.7770000000e+00 0.0000e+00 -1.0000e+00
       22  1    3    3    0    0 -6.5851859420e-09 -5.9478061361e-09 -3.2782176297e-08 3.3961922126e-08 0.0000000000e+00 0.0000e+00 1.0000e+00
<mgrwt>
<rscale>  2 0.12500000E+03</rscale>
<asrwt>0</asrwt>
<pdfrwt beam="1">  1       21 0.18072050E-02 0.12500000E+03</pdfrwt>
<pdfrwt beam="2">  1       21 0.46744960E-01 0.12500000E+03</pdfrwt>
<totfact> 0.60606697E+06</totfact>
</mgrwt>
</event>
<event>
 6      0 +4.1053447e-01 1.25000000e+02 7.54677100e-03 1.12640300e-01
       21 -1    0    0  502  501 +0.0000000000e+00 +0.0000000000e+00 +5.0649145369e+01 5.0649145369e+01 0.0000000000e+00 0.0000e+00 -1.0000e+00
       21 -1    0    0  501  502 -0.0000000000e+00 -0.0000000000e+00 -7.7123710016e+01 7.7123710016e+01 0.0000000000e+00 0.0000e+00 -1.0000e+00
       25  2    1    2    0    0 +0.0000000000e+00 +0.0000000000e+00 -2.6474564647e+01 1.2777285538e+02 1.2500000000e+02 0.0000e+00 0.0000e+00
      -15  1    3    3    0    0 -6.0782653492e+01 +1.4266298708e+00 +1.4525204393e+00 6.0842697038e+01 1.7770000000e+00 0.0000e+00 -1.0000e+00
       15  1    3    3    0    0 +6.0782653056e+01 -1.4266296152e+00 -2.7927085433e+01 6.6930157735e+01 1.7770000000e+00 0.0000e+00 -1.0000e+00
       22  1    3    3    0    0 +4.3510166354e-07 -2.5559417844e-07 +3.4620399379e-07 6.1196327257e-07 0.0000000000e+00 0.0000e+00 -1.0000e+00
<mgrwt>
<rscale>  2 0.12500000E+03</rscale>
<asrwt>0</asrwt>
<pdfrwt beam="1">  1       21 0.74484038E-02 0.12500000E+03</pdfrwt>
<pdfrwt beam="2">  1       21 0.11341722E-01 0.12500000E+03</pdfrwt>
<totfact> 0.88497623E+06</totfact>
</mgrwt>
</event>
<event>
 6      0 +4.1053447e-01 1.25000000e+02 7.54677100e-03 1.12640300e-01
       21 -1    0    0  502  501 +0.0000000000e+00 +0.0000000000e+00 +2.5080422233e+02 2.5080422233e+02 0.0000000000e+00 0.0000e+00 1.0000e+00
       21 -1    0    0  501  502 -0.0000000000e+00 -0.0000000000e+00 -1.5574897279e+01 1.5574897279e+01 0.0000000000e+00 0.0000e+00 1.0000e+00
       25  2    1    2    0    0 +0.0000000000e+00 +0.0000000000e+00 +2.3522932505e+02 2.6637911961e+02 1.2500000000e+02 0.0000e+00 0.0000e+00
      -15  1    3    3    0    0 -1.4707815609e+01 +2.3477462524e+01 -1.7139938307e+00 2.7813784179e+01 1.7770000000e+00 0.0000e+00 1.0000e+00
       15  1    3    3    0    0 +1.3955172843e+01 -2.2510010340e+01 +2.2703526185e+02 2.2858174745e+02 1.7770000000e+00 0.0000e+00 1.0000e+00
       22  1    3    3    0    0 +7.5264276569e-01 -9.6745218404e-01 +9.9080570266e+00 9.9835879775e+00 0.0000000000e+00 0.0000e+00 1.0000e+00
<mgrwt>
<rscale>  2 0.12500000E+03</rscale>
<asrwt>0</asrwt>
<pdfrwt beam="1">  1       21 0.36882971E-01 0.12500000E+03</pdfrwt>
<pdfrwt beam="2">  1       21 0.22904262E-02 0.12500000E+03</pdfrwt>
<totfact> 0.67942455E+06</totfact>
</mgrwt>
</event>
<event>
 6      0 +4.1053447e-01 1.25000000e+02 7.54677100e-03 1.12640300e-01
       21 -1    0    0  502  501 +0.0000000000e+00 +0.0000000000e+00 +3.1923276381e+02 3.1923276381e+02 0.0000000000e+00 0.0000e+00 1.0000e+00
       21 -1    0    0  501  502 -0.0000000000e+00 -0.0000000000e+00 -1.2236369329e+01 1.2236369329e+01 0.0000000000e+00 0.0000e+00 1.0000e+00
       25  2    1    2    0    0 +0.0000000000e+00 +0.0000000000e+00 +3.0699639449e+02 3.3146913314e+02 1.2500000000e+02 0.0000e+00 0.0000e+00
      -15  1    3    3    0    0 +2.2396458794e+01 +4.0113247446e+01 +4.1231030641e+01 6.1756211055e+01 1.7770000000e+00 0.0000e+00 1.0000e+00
       15  1    3    3    0    0 -2.2396458284e+01 -4.0113245746e+01 +2.6576535426e+02 2.6971291233e+02 1.7770000000e+00 0.0000e+00 1.0000e+00
       22  1    3    3    0    0 -5.0931779028e-07 -1.6994785765e-06 +9.6447614279e-06 9.8065822306e-06 0.0000000000e+00 0.0000e+00 -1.0000e+00
<mgrwt>
<rscale>  2 0.12500000E+03</rscale>
<asrwt>0</asrwt>
<pdfrwt beam="1">  1       21 0.46945989E-01 0.12500000E+03</pdfrwt>
<pdfrwt beam="2">  1       21 0.17994663E-02 0.12500000E+03</pdfrwt>
<totfact> 0.60466232E+06</totfact>
</mgrwt>
</event>
<event>
 6      0 +4.1053447e-01 1.25000000e+02 7.54677100e-03 1.12640300e-01
       21 -1    0    0  502  501 +0.0000000000e+00 +0.0000000000e+00 +5.9691561244e+02 5.9691561244e+02 0.0000000000e+00 0.0000e+00 -1.0000e+00
       21 -1    0    0  501  502 -0.0000000000e+00 -0.0000000000e+00 -6.5440573484e+00 6.5440573484e+00 0.0000000000e+00 0.0000e+00 -1.0000e+00
       25  2    1    2    0    0 +0.0000000000e+00 +0.0000000000e+00 +5.9037155510e+02 6.0345966979e+02 1.2500000000e+02 0.0000e+00 0.0000e+00
      -15  1    3    3    0    0 +2.9980160614e+01 -4.8548442210e+01 +1.7235662964e+02 1.8156466281e+02 1.7770000000e+00 0.0000e+00 -1.0000e+00
       15  1    3    3    0    0 -2.9980159925e+01 +4.8548441681e+01 +4.1801492088e+02 4.2189500232e+02 1.7770000000e+00 0.0000e+00 -1.0000e+00
       22  1    3    3    0    0 -6.8931431085e-07 +5.2954798339e-07 +4.7335082986e-06 4.8126579038e-06 0.0000000000e+00 0.0000e+00 1.0000e+00
<mgrwt>
<rscale>  2 0.12500000E+03</rscale>
<asrwt>0</asrwt>
<pdfrwt beam="1">  1       21 0.87781670E-01 0.12500000E+03</pdfrwt>
<pdfrwt beam="2">  1       21 0.96236179E-03 0.12500000E+03</pdfrwt>
<totfact> 0.38304590E+06</totfact>
</mgrwt>
</event>
<event>
 6      0 +4.1053447e-01 1.25000000e+02 7.54677100e-03 1.12640300e-01
       21 -1    0    0  502  501 +0.0000000000e+00 +0.0000000000e+00 +1.0486218078e+02 1.0486218078e+02 0.0000000000e+00 0.0000e+00 1.0000e+00
       21 -1    0    0  501  502 -0.0000000000e+00 -0.0000000000e+00 -3.7251275637e+01 3.7251275637e+01 0.0000000000e+00 0.0000e+00 1.0000e+00
       25  2    1    2    0    0 +0.0000000000e+00 +0.0000000000e+00 +6.7610905138e+01 1.4211345641e+02 1.2500000000e+02 0.0000e+00 0.0000e+00
      -15  1    3    3    0    0 +3.5229427341e+01 -4.5409003092e+01 +5.9569905772e+00 5.7807729399e+01 1.7770000000e+00 0.0000e+00 1.0000e+00
       15  1    3    3    0    0 -3.5229431920e+01 +4.5409013432e+01 +6.1653899101e+01 8.4305707859e+01 1.7770000000e+00 0.0000e+00 1.0000e+00
       22  1    3    3    0    0 +4.5791288193e-06 -1.0339172833e-05 +1.5460532323e-05 1.9154502743e-05 0.0000000000e+00 0.0000e+00 1.0000e+00
<mgrwt>
<rscale>  2 0.12500000E+03</rscale>
<asrwt>0</asrwt>
<pdfrwt beam="1">  1       21 0.15420909E-01 0.12500000E+03</pdfrwt>
<pdfrwt beam="2">  1       21 0.54781288E-02 0.12500000E+03</pdfrwt>
<totfact> 0.85974167E+06</totfact>
</mgrwt>
</event>
<event>
 6      0 +4.1053447e-01 1.25000000e+02 7.54677100e-03 1.12640300e-01
       21 -1    0    0  502  501 +0.0000000000e+00 +0.0000000000e+00 +3.5388060858e+01 3.5388060858e+01 0.0000000000e+00 0.0000e+00 1.0000e+00
       21 -1    0    0  501  502 -0.0000000000e+00 -0.0000000000e+00 -1.1038327349e+02 1.1038327349e+02 0.0000000000e+00 0.0000e+00 1.0000e+00
       25  2    1    2    0    0 +0.0000000000e+00 +0.0000000000e+00 -7.4995212631e+01 1.4577133435e+02 1.2500000000e+02 0.0000e+00 0.0000e+00
      -15  1    3    3    0    0 -4.0130041752e+01 -1.0146817110e+01 -9.2067034355e+01 1.0095976769e+02 1.7770000000e+00 0.0000e+00 -1.0000e+00
       15  1    3    3    0    0 +4.0130345289e+01 +1.0146950459e+01 +1.7072281154e+01 4.4811000094e+01 1.7770000000e+00 0.0000e+00 -1.0000e+00
       22  1    3    3    0    0 -3.0353785904e-04 -1.3334805386e-04 -4.5942865782e-04 5.6656122966e-04 0.0000000000e+00 0.0000e+00 -1.0000e+00
<mgrwt>
<rscale>  2 0.12500000E+03</rscale>
<asrwt>0</asrwt>
<pdfrwt beam="1">  1       21 0.52041266E-02 0.12500000E+03</pdfrwt>
<pdfrwt beam="2">  1       21 0.16232834E-01 0.12500000E+03</pdfrwt>
<totfact> 0.85341887E+06</totfact>
</mgrwt>
</event>
<event>
 6      0 +4.1053447e-01 1.25000000e+02 7.54677100e-03 1.12640300e-01
       21 -1    0    0  502  501 +0.0000000000e+00 +0.0000000000e+00 +1.2262398248e+02 1.2262398248e+02 0.0000000000e+00 0.0000e+00 1.0000e+00
       21 -1    0    0  501  502 -0.0000000000e+00 -0.0000000000e+00 -3.1855514075e+01 3.1855514075e+01 0.0000000000e+00 0.0000e+00 1.0000e+00
       25  2    1    2    0    0 +0.0000000000e+00 +0.0000000000e+00 +9.0768468409e+01 1.5447949656e+02 1.2500000000e+02 0.0000e+00 0.0000e+00
      -15  1    3    3    0    0 -9.4222413334e+00 +3.2629696126e+01 -1.9418528541e+01 3.9162643944e+01 1.7770000000e+00 0.0000e+00 -1.0000e+00
       15  1    3    3    0    0 +9.4222565677e+00 -3.2630061136e+01 +1.1018721052e+02 1.1531642944e+02 1.7770000000e+00 0.0000e+00 -1.0000e+00
       22  1    3    3    0    0 -1.5234314724e-05 +3.6501034124e-04 -2.1356824092e-04 4.2317375519e-04 0.0000000000e+00 0.0000e+00 1.0000e+00
<mgrwt>
<rscale>  2 0.12500000E+03</rscale>
<asrwt>0</asrwt>
<pdfrwt beam="1">  1       21 0.18032938E-01 0.12500000E+03</pdfrwt>
<pdfrwt beam="2">  1       21 0.46846345E-02 0.12500000E+03</pdfrwt>
<totfact> 0.83881085E+06</totfact>
</mgrwt>
</event>
<event>
 6      0 +4.1053447e-01 1.25000000e+02 7.54677100e-03 1.12640300e-01
       21 -1    0    0  502  501 +0.0000000000e+00 +0.0000000000e+00 +3.4594557697e+00 3.4594557697e+00 0.0000000000e+00 0.0000e+00 -1.0000e+00
       21 -1    0    0  501  502 -0.0000000000e+00 -0.0000000000e+00 -1.1291515949e+03 1.1291515949e+03 0.0000000000e+00 0.0000e+00 -1.0000e+00
       25  2    1    2    0    0 +0.0000000000e+00 +0.0000000000e+00 -1.1256921392e+03 1.1326110507e+03 1.2500000000e+02 0.0000e+00 0.0000e+00
      -15  1    3    3    0    0 +2.7900817705e+01 +3.1096335962e+01 -1.4196375056e+02 1.4799426320e+02 1.7770000000e+00 0.0000e+00 1.0000e+00
       15  1    3    3    0    0 -2.7896892800e+01 -3.1091571204e+01 -9.8364444744e+02 9.8453261964e+02 1.7770000000e+00 0.0000e+00 1.0000e+00
       22  1    3    3    0    0 -3.9249044922e-03 -4.7647582733e-03 -8.3944391881e-02 8.4171068218e-02 0.0000000000e+00 0.0000e+00 1.0000e+00
<mgrwt>
<rscale>  2 0.12500000E+03</rscale>
<asrwt>0</asrwt>
<pdfrwt beam="1">  1       21 0.50874279E-03 0.12500000E+03</pdfrwt>
<pdfrwt beam="2">  1       21 0.16605194E+00 0.12500000E+03</pdfrwt>
<totfact> 0.17590780E+06</totfact>
</mgrwt>
</event>
<event>
 6      0 +4.1053447e-01 1.25000000e+02 7.54677100e-03 1.12640300e-01
       21 -1    0    0  502  501 +0.0000000000e+00 +0.0000000000e+00 +2.8613262136e+01 2.8613262136e+01 0.0000000000e+00 0.0000e+00 -1.0000e+00
       21 -1    0    0  501  502 -0.0000000000e+00 -0.0000000000e+00 -1.3651886253e+02 1.3651886253e+02 0.0000000000e+00 0.0000e+00 -1.0000e+00
       25  2    1    2    0    0 +0.0000000000e+00 +0.0000000000e+00 -1.0790560039e+02 1.6513212466e+02 1.2500000000e+02 0.0000e+00 0.0000e+00
      -15  1    3    3    0    0 -3.3900679347e+01 -3.1230599897e+01 +1.7570594859e+00 4.6161146185e+01 1.7770000000e+00 0.0000e+00 1.0000e+00
       15  1    3    3    0    0 +3.3901616923e+01 +3.1231570896e+01 -1.0966259048e+02 1.1896962692e+02 1.7770000000e+00 0.0000e+00 1.0000e+00
       22  1    3    3    0    0 -9.3757652457e-04 -9.7099904060e-04 -6.9400391174e-05 1.3515566176e-03 0.0000000000e+00 0.0000e+00 1.0000e+00
<mgrwt>
<rscale>  2 0.12500000E+03</rscale>
<asrwt>0</asrwt>
<pdfrwt beam="1">  1       21 0.42078327E-02 0.12500000E+03</pdfrwt>
<pdfrwt beam="2">  1       21 0.20076303E-01 0.12500000E+03</pdfrwt>
<totfact> 0.82144817E+06</totfact>
</mgrwt>
</event>
<event>
 6      0 +4.1053447e-01 1.25000000e+02 7.54677100e-03 1.12640300e-01
       21 -1    0    0  502  501 +0.0000000000e+00 +0.0000000000e+00 +1.9775152249e+01 1.9775152249e+01 0.0000000000e+00 0.0000e+00 -1.0000e+00
       21 -1    0    0  501  502 -0.0000000000e+00 -0.0000000000e+00 -1.9753324530e+02 1.9753324530e+02 0.0000000000e+00 0.0000e+00 -1.0000e+00
       25  2    1    2    0    0 +0.0000000000e+00 +0.0000000000e+00 -1.7775809305e+02 2.1730839755e+02 1.2500000000e+02 0.0000e+00 0.0000e+00
      -15  1    3    3    0    0 +3.3477033945e+01 +5.1508727358e+01 -1.0850251735e+02 1.2469889653e+02 1.7770000000e+00 0.0000e+00 1.0000e+00
       15  1    3    3    0    0 -3.3484764794e+01 -5.1506941179e+01 -6.9197049832e+01 9.2550439747e+01 1.7770000000e+00 0.0000e+00 1.0000e+00
       22  1    3    3    0    0 +7.7308496852e-03 -1.7861789642e-03 -5.8525861505e-02 5.9061264269e-02 0.0000000000e+00 0.0000e+00 1.0000e+00
<mgrwt>
<rscale>  2 0.12500000E+03</rscale>
<asrwt>0</asrwt>
<pdfrwt beam="1">  1       21 0.29081105E-02 0.12500000E+03</pdfrwt>
<pdfrwt beam="2">  1       21 0.29049008E-01 0.12500000E+03</pdfrwt>
<totfact> 0.74363829E+06</totfact>
</mgrwt>
</event>
<event>
 6      0 +4.1053447e-01 1.25000000e+02 7.54677100e-03 1.12640300e-01
       21 -1    0    0  502  501 +0.0000000000e+00 +0.0000000000e+00 +8.0362955244e+00 8.0362955244e+00 0.0000000000e+00 0.0000e+00 1.0000e+00
       21 -1    0    0  501  502 -0.0000000000e+00 -0.0000000000e+00 -4.8607595230e+02 4.8607595230e+02 0.0000000000e+00 0.0000e+00 1.0000e+00
       25  2    1    2    0    0 +0.0000000000e+00 +0.0000000000e+00 -4.7803965678e+02 4.9411224783e+02 1.2500000000e+02 0.0000e+00 0.0000e+00
      -15  1    3    3    0    0 +3.3507122659e+01 +1.8223982254e+01 -4.3431354403e+01 5.7829759401e+01 1.7770000000e+00 0.0000e+00 1.0000e+00
       15  1    3    3    0    0 -3.3507226556e+01 -1.8224170010e+01 -4.3460325396e+02 4.3627743545e+02 1.7770000000e+00 0.0000e+00 1.0000e+00
       22  1    3    3    0    0 +1.0389640763e-04 +1.8775650574e-04 -5.0483994843e-03 5.0529579775e-03 0.0000000000e+00 0.0000e+00 1.0000e+00
<mgrwt>
<rscale>  2 0.12500000E+03</rscale>
<asrwt>0</asrwt>
<pdfrwt beam="1">  1       21 0.11818081E-02 0.12500000E+03</pdfrwt>
<pdfrwt beam="2">  1       21 0.71481759E-01 0.12500000E+03</pdfrwt>
<totfact> 0.45767104E+06</totfact>
</mgrwt>
</event>
<event>
 6      0 +4.1053447e-01 1.25000000e+02 7.54677100e-03 1.12640300e-01
       21 -1    0    0  502  501 +0.0000000000e+00 +0.0000000000e+00 +1.3951850668e+01 1.3951850668e+01 0.0000000000e+00 0.0000e+00 1.0000e+00
       21 -1    0    0  501  502 -0.0000000000e+00 -0.0000000000e+00 -2.7998077767e+02 2.7998077767e+02 0.0000000000e+00 0.0000e+00 1.0000e+00
       25  2    1    2    0    0 +0.0000000000e+00 +0.0000000000e+00 -2.6602892700e+02 2.9393262834e+02 1.2500000000e+02 0.0000e+00 0.0000e+00
      -15  1    3    3    0    0 +4.4832705394e+01 +4.3477776112e+01 -1.2907715017e+02 1.4340277861e+02 1.7770000000e+00 0.0000e+00 1.0000e+00
       15  1    3    3    0    0 -4.4832705241e+01 -4.3477777047e+01 -1.3695177639e+02 1.5052984868e+02 1.7770000000e+00 0.0000e+00 1.0000e+00
       22  1    3    3    0    0 -1.5248910099e-07 +9.3410767978e-07 -4.2448047939e-07 1.0373011909e-06 0.0000000000e+00 0.0000e+00 -1.0000e+00
<mgrwt>
<rscale>  2 0.12500000E+03</rscale>
<asrwt>0</asrwt>
<pdfrwt beam="1">  1       21 0.20517428E-02 0.12500000E+03</pdfrwt>
<pdfrwt beam="2">  1       21 0.41173642E-01 0.12500000E+03</pdfrwt>
<totfact> 0.64651223E+06</totfact>
</mgrwt>
</event>
<event>
 6      0 +4.1053447e-01 1.25000000e+02 7.54677100e-03 1.12640300e-01
       21 -1    0    0  502  501 +0.0000000000e+00 +0.0000000000e+00 +3.4749372248e+01 3.4749372248e+01 0.0000000000e+00 0.0000e+00 -1.0000e+00
       21 -1    0    0  501  502 -0.0000000000e+00 -0.0000000000e+00 -1.1241210264e+02 1.1241210264e+02 0.0000000000e+00 0.0000e+00 -1.0000e+00
       25  2    1    2    0    0 +0.0000000000e+00 +0.0000000000e+00 -7.7662730396e+01 1.4716147489e+02 1.2500000000e+02 0.0000e+00 0.0000e+00
      -15  1    3    3    0    0 -3.4505591312e+01 +4.5498573375e+01 -8.9936655374e+00 5.7834243833e+01 1.7770000000e+00 0.0000e+00 -1.0000e+00
       15  1    3    3    0    0 +3.4505591307e+01 -4.5498573373e+01 -6.8669064851e+01 8.9327231050e+01 1.7770000000e+00 0.0000e+00 -1.0000e+00
       22  1    3    3    0    0 +5.5547828820e-09 -1.4968993882e-09 -8.7424864083e-09 1.0465533395e-08 0.0000000000e+00 0.0000e+00 1.0000e+00
<mgrwt>
<rscale>  2 0.12500000E+03</rscale>
<asrwt>0</asrwt>
<pdfrwt beam="1">  1       21 0.51102019E-02 0.12500000E+03</pdfrwt>
<pdfrwt beam="2">  1       21 0.16531191E-01 0.12500000E+03</pdfrwt>
<totfact> 0.85104695E+06</totfact>
</mgrwt>
</event>
<event>
 6      0 +4.1053447e-01 1.25000000e+02 7.54677100e-03 1.12640300e-01
       21 -1    0    0  502  501 +0.0000000000e+00 +0.0000000000e+00 +8.6631823161e+01 8.6631823161e+01 0.0000000000e+00 0.0000e+00 1.0000e+00
       21 -1    0    0  501  502 -0.0000000000e+00 -0.0000000000e+00 -4.5090243487e+01 4.5090243487e+01 0.0000000000e+00 0.0000e+00 1.0000e+00
       25  2    1    2    0    0 +0.0000000000e+00 +0.0000000000e+00 +4.1541579674e+01 1.3172206665e+02 1.2500000000e+02 0.0000e+00 0.0000e+00
      -15  1    3    3    0    0 -6.0448956681e+01 -9.9574220386e+00 +3.3670955048e+01 6.9929375518e+01 1.7770000000e+00 0.0000e+00 1.0000e+00
       15  1    3    3    0    0 +6.0448111665e+01 +9.9570856801e+00 +7.8702915635e+00 6.1791722563e+01 1.7770000000e+00 0.0000e+00 1.0000e+00
       22  1    3    3    0    0 +8.4501619955e-04 +3.3635850944e-04 +3.3306032009e-04 9.6856522816e-04 0.0000000000e+00 0.0000e+00 1.0000e+00
<mgrwt>
<rscale>  2 0.12500000E+03</rscale>
<asrwt>0</asrwt>
<pdfrwt beam="1">  1       21 0.12739974E-01 0.12500000E+03</pdfrwt>
<pdfrwt beam="2">  1       21 0.66309181E-02 0.12500000E+03</pdfrwt>
<totfact> 0.87786023E+06</totfact>
</mgrwt>
</event>
<event>
 6      0 +4.1053447e-01 1.25000000e+02 7.54677100e-03 1.12640300e-01
       21 -1    0    0  502  501 +0.0000000000e+00 +0.0000000000e+00 +6.6160378073e+01 6.6160378073e+01 0.0000000000e+00 0.0000e+00 -1.0000e+00
       21 -1    0    0  501  502 -0.0000000000e+00 -0.0000000000e+00 -5.9042135396e+01 5.9042135396e+01 0.0000000000e+00 0.0000e+00 -1.0000e+00
       25  2    1    2    0    0 +0.0000000000e+00 +0.0000000000e+00 +7.1182426772e+00 1.2520251347e+02 1.2500000000e+02 0.0000e+00 0.0000e+00
      -15  1    3    3    0    0 -2.1330409495e+01 -5.7946557773e+01 +1.3060044456e+01 6.3138834461e+01 1.7770000000e+00 0.0000e+00 1.0000e+00
       15  1    3    3    0    0 +2.1330484227e+01 +5.7949089758e+01 -5.9428197037e+00 6.2060949043e+01 1.7770000000e+00 0.0000e+00 1.0000e+00
       22  1    3    3    0    0 -7.4731973954e-05 -2.5319851270e-03 +1.0179250814e-03 2.7299642897e-03 0.0000000000e+00 0.0000e+00 -1.0000e+00
<mgrwt>
<rscale>  2 0.12500000E+03</rscale>
<asrwt>0</asrwt>
<pdfrwt beam="1">  1       21 0.97294674E-02 0.12500000E+03</pdfrwt>
<pdfrwt beam="2">  1       21 0.86826669E-02 0.12500000E+03</pdfrwt>
<totfact> 0.88960292E+06</totfact>
</mgrwt>
</event>
<event>
 6      0 +4.1053447e-01 1.25000000e+02 7.54677100e-03 1.12640300e-01
       21 -1    0    0  502  501 +0.0000000000e+00 +0.0000000000e+00 +6.7538246814e+01 6.7538246814e+01 0.0000000000e+00 0.0000e+00 1.0000e+00
       21 -1    0    0  501  502 -0.0000000000e+00 -0.0000000000e+00 -5.7837598461e+01 5.7837598461e+01 0.0000000000e+00 0.0000e+00 1.0000e+00
       25  2    1    2    0    0 +0.0000000000e+00 +0.0000000000e+00 +9.7006483533e+00 1.2537584528e+02 1.2500000000e+02 0.0000e+00 0.0000e+00
      -15  1    3    3    0    0 +6.1104977734e+01 -1.2791834361e+01 +7.2329536850e+00 6.2872272730e+01 1.7770000000e+00 0.0000e+00 1.0000e+00
       15  1    3    3    0    0 -6.1104976583e+01 +1.2791833831e+01 +2.4676947297e+00 6.2503571276e+01 1.7770000000e+00 0.0000e+00 1.0000e+00
       22  1    3    3    0    0 -1.1513561713e-06 +5.3011601885e-07 -6.1716680489e-08 1.2690362387e-06 0.0000000000e+00 0.0000e+00 -1.0000e+00
<mgrwt>
<rscale>  2 0.12500000E+03</rscale>
<asrwt>0</asrwt>
<pdfrwt beam="1">  1       21 0.99320951E-02 0.12500000E+03</pdfrwt>
<pdfrwt beam="2">  1       21 0.85055292E-02 0.12500000E+03</pdfrwt>
<totfact> 0.88926805E+06</totfact>
</mgrwt>
</event>
<event>
 6      0 +4.1053447e-01 1.25000000e+02 7.54677100e-03 1.12640300e-01
       21 -1    0    0  502  501 +0.0000000000e+00 +0.0000000000e+00 +2.0539049037e+01 2.0539049037e+01 0.0000000000e+00 0.0000e+00 1.0000e+00
       21 -1    0    0  501  502 -0.0000000000e+00 -0.0000000000e+00 -1.9018650732e+02 1.9018650732e+02 0.0000000000e+00 0.0000e+00 1.0000e+00
       25  2    1    2    0    0 +0.0000000000e+00 +0.0000000000e+00 -1.6964745828e+02 2.1072555635e+02 1.2500000000e+02 0.0000e+00 0.0000e+00
      -15  1    3    3    0    0 -9.8998816021e+00 +3.6745998556e+01 -1.6834875941e+02 1.7260573163e+02 1.7770000000e+00 0.0000e+00 1.0000e+00
       15  1    3    3    0    0 +9.8998067285e+00 -3.6745603854e+01 -1.2987581659e+00 3.8119418642e+01 1.7770000000e+00 0.0000e+00 1.0000e+00
       22  1    3    3    0    0 +7.4873570502e-05 -3.9470234613e-04 +5.9289640820e-05 4.0609266813e-04 0.0000000000e+00 0.0000e+00 -1.0000e+00
<mgrwt>
<rscale>  2 0.12500000E+03</rscale>
<asrwt>0</asrwt>
<pdfrwt beam="1">  1       21 0.30204484E-02 0.12500000E+03</pdfrwt>
<pdfrwt beam="2">  1       21 0.27968604E-01 0.12500000E+03</pdfrwt>
<totfact> 0.75282021E+06</totfact>
</mgrwt>
</event>
<event>
 6      0 +4.1053447e-01 1.25000000e+02 7.54677100e-03 1.12640300e-01
       21 -1    0    0  502  501 +0.0000000000e+00 +0.0000000000e+00 +3.2816923522e+01 3.2816923522e+01 0.0000000000e+00 0.0000e+00 1.0000e+00
       21 -1    0    0  501  502 -0.0000000000e+00 -0.0000000000e+00 -1.1903157215e+02 1.1903157215e+02 0.0000000000e+00 0.0000e+00 1.0000e+00
       25  2    1    2    0    0 +0.0000000000e+00 +0.0000000000e+00 -8.6214648628e+01 1.5184849567e+02 1.2500000000e+02 0.0000e+00 0.0000e+00
      -15  1    3    3    0    0 +1.5463679658e+01 -3.6792979852e+01 +1.5276527636e+01 4.2771237771e+01 1.7770000000e+00 0.0000e+00 -1.0000e+00
       15  1    3    3    0    0 -1.5267173282e+01 +3.6420766187e+01 -1.0007384096e+02 1.0759874611e+02 1.7770000000e+00 0.0000e+00 -1.0000e+00
       22  1    3    3    0    0 -1.9650637592e-01 +3.7221366443e-01 -1.4173353009e+00 1.4785117933e+00 0.0000000000e+00 0.0000e+00 -1.0000e+00
<mgrwt>
<rscale>  2 0.12500000E+03</rscale>
<asrwt>0</asrwt>
<pdfrwt beam="1">  1       21 0.48260182E-02 0.12500000E+03</pdfrwt>
<pdfrwt beam="2">  1       21 0.17504643E-01 0.12500000E+03</pdfrwt>
<totfact> 0.84316632E+06</totfact>
</mgrwt>
</event>
<event>
 6      0 +4.1053447e-01 1.25000000e+02 7.54677100e-03 1.12640300e-01
       21 -1    0    0  502  501 +0.0000000000e+00 +0.0000000000e+00 +1.6476701961e+02 1.6476701961e+02 0.0000000000e+00 0.0000e+00 -1.0000e+00
       21 -1    0    0  501  502 -0.0000000000e+00 -0.0000000000e+00 -2.3707717777e+01 2.3707717777e+01 0.0000000000e+00 0.0000e+00 -1.0000e+00
       25  2    1    2    0    0 +0.0000000000e+00 +0.0000000000e+00 +1.4105930184e+02 1.8847473739e+02 1.2500000000e+02 0.0000e+00 0.0000e+00
      -15  1    3    3    0    0 +1.4617150381e+01 -6.0334542053e+01 +8.1102983129e+01 1.0215072027e+02 1.7770000000e+00 0.0000e+00 -1.0000e+00
       15  1    3    3    0    0 -1.4617150378e+01 +6.0334542050e+01 +5.9956318708e+01 8.6324017118e+01 1.7770000000e+00 0.0000e+00 -1.0000e+00
       22  1    3    3    0    0 -3.2348710717e-09 +3.8188694533e-09 +8.7497774704e-09 1.0080017884e-08 0.0000000000e+00 0.0000e+00 1.0000e+00
<mgrwt>
<rscale>  2 0.12500000E+03</rscale>
<asrwt>0</asrwt>
<pdfrwt beam="1">  1       21 0.24230444E-01 0.12500000E+03</pdfrwt>
<pdfrwt beam="2">  1       21 0.34864292E-02 0.12500000E+03</pdfrwt>
<totfact> 0.78525511E+06</totfact>
</mgrwt>
</event>
<event>
 6      0 +4.1053447e-01 1.25000000e+02 7.54677100e-03 1.12640300e-01
       21 -1    0    0  502  501 +0.0000000000e+00 +0.0000000000e+00 +4.0988118051e+02 4.0988118051e+02 0.0000000000e+00 0.0000e+00 1.0000e+00
       21 -1    0    0  501  502 -0.0000000000e+00 -0.0000000000e+00 -9.5302009113e+00 9.5302009113e+00 0.0000000000e+00 0.0000e+00 1.0000e+00
       25  2    1    2    0    0 +0.0000000000e+00 +0.0000000000e+00 +4.0035097960e+02 4.1941138142e+02 1.2500000000e+02 0.0000e+00 0.0000e+00
      -15  1    3    3    0    0 +2.8646661291e+01 +5.3394896139e+01 +1.4914201824e+02 1.6099113476e+02 1.7770000000e+00 0.0000e+00 1.0000e+00
       15  1    3    3    0    0 -2.8632547237e+01 -5.3376468530e+01 +2.5114629762e+02 2.5835342206e+02 1.7770000000e+00 0.0000e+00 1.0000e+00
       22  1    3    3    0    0 -1.4114053551e-02 -1.8427608666e-02 +6.2663766806e-02 6.6824628238e-02 0.0000000000e+00 0.0000e+00 -1.0000e+00
<mgrwt>
<rscale>  2 0.12500000E+03</rscale>
<asrwt>0</asrwt>
<pdfrwt beam="1">  1       21 0.60276633E-01 0.12500000E+03</pdfrwt>
<pdfrwt beam="2">  1       21 0.14015004E-02 0.12500000E+03</pdfrwt>
<totfact> 0.51900077E+06</totfact>
</mgrwt>
</event>
<event>
 6      0 +4.1053447e-01 1.25000000e+02 7.54677100e-03 1.12640300e-01
       21 -1    0    0  502  501 +0.0000000000e+00 +0.0000000000e+00 +2.3325823294e+01 2.3325823294e+01 0.0000000000e+00 0.0000e+00 1.0000e+00
       21 -1    0    0  501  502 -0.0000000000e+00 -0.0000000000e+00 -1.6746461425e+02 1.6746461425e+02 0.0000000000e+00 0.0000e+00 1.0000e+00
       25  2    1    2    0    0 +0.0000000000e+00 +0.0000000000e+00 -1.4413879096e+02 1.9079043754e+02 1.2500000000e+02 0.0000e+00 0.0000e+00
      -15  1    3    3    0    0 +5.4663397843e+01 +2.6622369514e+01 -5.0149051075e+01 7.8834780871e+01 1.7770000000e+00 0.0000e+00 1.0000e+00
       15  1    3    3    0    0 -5.4663407414e+01 -2.6622372773e+01 -9.3989729268e+01 1.1195564202e+02 1.7770000000e+00 0.0000e+00 1.0000e+00
       22  1    3    3    0    0 +9.5714088909e-06 +3.2590069335e-06 -1.0629380895e-05 1.4670266956e-05 0.0000000000e+00 0.0000e+00 1.0000e+00
<mgrwt>
<rscale>  2 0.12500000E+03</rscale>
<asrwt>0</asrwt>
<pdfrwt beam="1">  1       21 0.34302683E-02 0.12500000E+03</pdfrwt>
<pdfrwt beam="2">  1       21 0.24627148E-01 0.12500000E+03</pdfrwt>
<totfact> 0.78179735E+06</totfact>
</mgrwt>
</event>
<event>
 6      0 +4.1053447e-01 1.25000000e+02 7.54677100e-03 1.12640300e-01
       21 -1    0    0  502  501 +0.0000000000e+00 +0.0000000000e+00 +1.9431746556e+01 1.9431746556e+01 0.0000000000e+00 0.0000e+00 -1.0000e+00
       21 -1    0    0  501  502 -0.0000000000e+00 -0.0000000000e+00 -2.0102413279e+02 2.0102413279e+02 0.0000000000e+00 0.0000e+00 -1.0000e+00
       25  2    1    2    0    0 +0.0000000000e+00 +0.0000000000e+00 -1.8159238623e+02 2.2045587934e+02 1.2500000000e+02 0.0000e+00 0.0000e+00
      -15  1    3    3    0    0 +7.0293561856e+00 -5.5465663997e+01 -1.3995528770e+02 1.5071991247e+02 1.7770000000e+00 0.0000e+00 -1.0000e+00
       15  1    3    3    0    0 -6.9661272764e+00 +5.5270461055e+01 -4.1470306387e+01 6.9471539750e+01 1.7770000000e+00 0.0000e+00 -1.0000e+00
       22  1    3    3    0    0 -6.3228909292e-02 +1.9520294256e-01 -1.6679214598e-01 2.6442712363e-01 0.0000000000e+00 0.0000e+00 1.0000e+00
<mgrwt>
<rscale>  2 0.12500000E+03</rscale>
<asrwt>0</asrwt>
<pdfrwt beam="1">  1       21 0.28576099E-02 0.12500000E+03</pdfrwt>
<pdfrwt beam="2">  1       21 0.29562371E-01 0.12500000E+03</pdfrwt>
<totfact> 0.73930715E+06</totfact>
</mgrwt>
</event>
<event>
 6      0 +4.1053447e-01 1.25000000e+02 7.54677100e-03 1.12640300e-01
       21 -1    0    0  502  501 +0.0000000000e+00 +0.0000000000e+00 +8.7853428646e+01 8.7853428646e+01 0.0000000000e+00 0.0000e+00 -1.0000e+00
       21 -1    0    0  501  502 -0.0000000000e+00 -0.0000000000e+00 -4.4463261824e+01 4.4463261824e+01 0.0000000000e+00 0.0000e+00 -1.0000e+00
       25  2    1    2    0    0 +0.0000000000e+00 +0.0000000000e+00 +4.3390166823e+01 1.3231669047e+02 1.2500000000e+02 0.0000e+00 0.0000e+00
      -15  1    3    3    0    0 -7.2230859889e+00 +5.7220595366e+01 +4.7115758718e+01 7.4494442436e+01 1.7770000000e+00 0.0000e+00 1.0000e+00
       15  1    3    3    0    0 +7.2230844249e+00 -5.7220611886e+01 -3.7256126795e+00 5.7822221438e+01 1.7770000000e+00 0.0000e+00 1.0000e+00
       22  1    3    3    0    0 +1.5639975952e-06 +1.6520041293e-05 +2.0784254591e-05 2.6595922465e-05 0.0000000000e+00 0.0000e+00 -1.0000e+00
<mgrwt>
<rscale>  2 0.12500000E+03</rscale>
<asrwt>0</asrwt>
<pdfrwt beam="1">  1       21 0.12919622E-01 0.12500000E+03</pdfrwt>
<pdfrwt beam="2">  1       21 0.65387149E-02 0.12500000E+03</pdfrwt>
<totfact> 0.87679625E+06</totfact>
</mgrwt>
</event>
<event>
 6      0 +4.1053447e-01 1.25000000e+02 7.54677100e-03 1.12640300e-01
       21 -1    0    0  502  501 +0.0000000000e+00 +0.0000000000e+00 +1.9712359815e+03 1.9712359815e+03 0.0000000000e+00 0.0000e+00 -1.0000e+00
       21 -1    0    0  501  502 -0.0000000000e+00 -0.0000000000e+00 -1.9816247454e+00 1.9816247454e+00 0.0000000000e+00 0.0000e+00 -1.0000e+00
       25  2    1    2    0    0 +0.0000000000e+00 +0.0000000000e+00 +1.9692543568e+03 1.9732176063e+03 1.2500000000e+02 0.0000e+00 0.0000e+00
      -15  1    3    3    0    0 +3.0291920611e-01 -1.2537146603e+00 +1.9706267305e+03 1.9706279538e+03 1.7770000000e+00 0.0000e+00 -1.0000e+00
       15  1    3    3    0    0 -3.0291958290e-01 +1.2537153705e+00 -1.3725754899e+00 2.5894507158e+00 1.7770000000e+00 0.0000e+00 -1.0000e+00
       22  1    3    3    0    0 +3.7678729937e-07 -7.1021401078e-07 +1.9944073534e-04 1.9944235580e-04 0.0000000000e+00 0.0000e+00 -1.0000e+00
<mgrwt>
<rscale>  2 0.12500000E+03</rscale>
<asrwt>0</asrwt>
<pdfrwt beam="1">  1       21 0.28988628E+00 0.12500000E+03</pdfrwt>
<pdfrwt beam="2">  1       21 0.29141678E-03 0.12500000E+03</pdfrwt>
<totfact> 0.55905403E+05</totfact>
</mgrwt>
</event>
<event>
 6      0 +4.1053447e-01 1.25000000e+02 7.54677100e-03 1.12640300e-01
       21 -1    0    0  502  501 +0.0000000000e+00 +0.0000000000e+00 +1.3228200421e+02 1.3228200421e+02 0.0000000000e+00 0.0000e+00 1.0000e+00
       21 -1    0    0  501  502 -0.0000000000e+00 -0.0000000000e+00 -2.9529715877e+01 2.9529715877e+01 0.0000000000e+00 0.0000e+00 1.0000e+00
       25  2    1    2    0    0 +0.0000000000e+00 +0.0000000000e+00 +1.0275228834e+02 1.6181172009e+02 1.2500000000e+02 0.0000e+00 0.0000e+00
      -15  1    3    3    0    0 -6.2444390327e+01 -1.7355975698e-01 +5.3886348959e+01 8.2499868724e+01 1.7770000000e+00 0.0000e+00 -1.0000e+00
       15  1    3    3    0    0 +6.2444389035e+01 +1.7355971743e-01 +4.8865938253e+01 7.9311849652e+01 1.7770000000e+00 0.0000e+00 -1.0000e+00
       22  1    3    3    0    0 +1.2922114313e-06 +3.9554063461e-08 +1.1299575499e-06 1.7170262001e-06 0.0000000000e+00 0.0000e+00 1.0000e+00
<mgrwt>
<rscale>  2 0.12500000E+03</rscale>
<asrwt>0</asrwt>
<pdfrwt beam="1">  1       21 0.19453236E-01 0.12500000E+03</pdfrwt>
<pdfrwt beam="2">  1       21 0.43426053E-02 0.12500000E+03</pdfrwt>
<totfact> 0.82683899E+06</totfact>
</mgrwt>
</event>
<event>
 6      0 +4.1053447e-01 1.25000000e+02 7.54677100e-03 1.12640300e-01
       21 -1    0    0  502  501 +0.0000000000e+00 +0.0000000000e+00 +1.6107019312e+03 1.6107019312e+03 0.0000000000e+00 0.0000e+00 1.0000e+00
       21 -1    0    0  501  502 -0.0000000000e+00 -0.0000000000e+00 -2.4251848988e+00 2.4251848988e+00 0.0000000000e+00 0.0000e+00 1.0000e+00
       25  2    1    2    0    0 +0.0000000000e+00 +0.0000000000e+00 +1.6082767463e+03 1.6131271161e+03 1.2500000000e+02 0.0000e+00 0.0000e+00
      -15  1    3    3    0    0 +7.3337367412e+00 +4.6556083788e+01 +2.9261471763e+02 2.9639126730e+02 1.7770000000e+00 0.0000e+00 -1.0000e+00
       15  1    3    3    0    0 -7.9331010437e+00 -4.8506024080e+01 +1.3013614853e+03 1.3022905365e+03 1.7770000000e+00 0.0000e+00 -1.0000e+00
       22  1    3    3    0    0 +5.9936430247e-01 +1.9499402919e+00 +1.4300542987e+01 1.4445311849e+01 0.0000000000e+00 0.0000e+00 1.0000e+00
<mgrwt>
<rscale>  2 0.12500000E+03</rscale>
<asrwt>0</asrwt>
<pdfrwt beam="1">  1       21 0.23686719E+00 0.12500000E+03</pdfrwt>
<pdfrwt beam="2">  1       21 0.35664596E-03 0.12500000E+03</pdfrwt>
<totfact> 0.90903848E+05</totfact>
</mgrwt>
</event>
<event>
 6      0 +4.1053447e-01 1.25000000e+02 7.54677100e-03 1.12640300e-01
       21 -1    0    0  502  501 +0.0000000000e+00 +0.0000000000e+00 +1.4441907332e+01 1.4441907332e+01 0.0000000000e+00 0.0000e+00 -1.0000e+00
       21 -1    0    0  501  502 -0.0000000000e+00 -0.0000000000e+00 -2.7048020114e+02 2.7048020114e+02 0.0000000000e+00 0.0000e+00 -1.0000e+00
       25  2    1    2    0    0 +0.0000000000e+00 +0.0000000000e+00 -2.5603829381e+02 2.8492210847e+02 1.2500000000e+02 0.0000e+00 0.0000e+00
      -15  1    3    3    0    0 +4.4884566050e+01 -3.4982031632e+01 -6.9251734512e+01 8.9651142037e+01 1.7770000000e+00 0.0000e+00 1.0000e+00
       15  1    3    3    0    0 -4.4884584672e+01 +3.4982049005e+01 -1.8678652950e+02 1.9527092724e+02 1.7770000000e+00 0.0000e+00 1.0000e+00
       22  1    3    3    0    0 +1.8622446157e-05 -1.7373658266e-05 -2.9815894201e-05 3.9212587895e-05 0.0000000000e+00 0.0000e+00 1.0000e+00
<mgrwt>
<rscale>  2 0.12500000E+03</rscale>
<asrwt>0</asrwt>
<pdfrwt beam="1">  1       21 0.21238101E-02 0.12500000E+03</pdfrwt>
<pdfrwt beam="2">  1       21 0.39776496E-01 0.12500000E+03</pdfrwt>
<totfact> 0.65706961E+06</totfact>
</mgrwt>
</event>
<event>
 6      0 +4.1053447e-01 1.25000000e+02 7.54677100e-03 1.12640300e-01
       21 -1    0    0  502  501 +0.0000000000e+00 +0.0000000000e+00 +7.9208606182e+02 7.9208606182e+02 0.0000000000e+00 0.0000e+00 -1.0000e+00
       21 -1    0    0  501  502 -0.0000000000e+00 -0.0000000000e+00 -4.9315979517e+00 4.9315979517e+00 0.0000000000e+00 0.0000e+00 -1.0000e+00
       25  2    1    2    0    0 +0.0000000000e+00 +0.0000000000e+00 +7.8715446386e+02 7.9701765977e+02 1.2500000000e+02 0.0000e+00 0.0000e+00
      -15  1    3    3    0    0 -2.8250119089e+01 +5.5127654958e+01 +3.4179107066e+02 3.4736352900e+02 1.7770000000e+00 0.0000e+00 1.0000e+00
       15  1    3    3    0    0 +2.8250119138e+01 -5.5127654909e+01 +4.4536339180e+02 4.4965412936e+02 1.7770000000e+00 0.0000e+00 1.0000e+00
       22  1    3    3    0    0 -4.8914159726e-08 -4.9728492993e-08 +1.1293866841e-06 1.1315386871e-06 0.0000000000e+00 0.0000e+00 -1.0000e+00
<mgrwt>
<rscale>  2 0.12500000E+03</rscale>
<asrwt>0</asrwt>
<pdfrwt beam="1">  1       21 0.11648316E+00 0.12500000E+03</pdfrwt>
<pdfrwt beam="2">  1       21 0.72523554E-03 0.12500000E+03</pdfrwt>
<totfact> 0.28410459E+06</totfact>
</mgrwt>
</event>
<event>
 6      0 +4.1053447e-01 1.25000000e+02 7.54677100e-03 1.12640300e-01
       21 -1    0    0  502  501 +0.0000000000e+00 +0.0000000000e+00 +2.1408148480e+01 2.1408148480e+01 0.0000000000e+00 0.0000e+00 -1.0000e+00
       21 -1    0    0  501  502 -0.0000000000e+00 -0.0000000000e+00 -1.8246556930e+02 1.8246556930e+02 0.0000000000e+00 0.0000e+00 -1.0000e+00
       25  2    1    2    0    0 +0.0000000000e+00 +0.0000000000e+00 -1.6105742082e+02 2.0387371778e+02 1.2500000000e+02 0.0000e+00 0.0000e+00
      -15  1    3    3    0    0 -3.8906907932e+01 +1.2216319653e+01 -3.3343549579e+00 4.0954384413e+01 1.7770000000e+00 0.0000e+00 -1.0000e+00
       15  1    3    3    0    0 +3.8906907876e+01 -1.2216319644e+01 -1.5772306564e+02 1.6291933314e+02 1.7770000000e+00 0.0000e+00 -1.0000e+00
       22  1    3    3    0    0 +5.5919110783e-08 -8.7306331403e-09 -2.1618879017e-07 2.2347430255e-07 0.0000000000e+00 0.0000e+00 -1.0000e+00
<mgrwt>
<rscale>  2 0.12500000E+03</rscale>
<asrwt>0</asrwt>
<pdfrwt beam="1">  1       21 0.31482571E-02 0.12500000E+03</pdfrwt>
<pdfrwt beam="2">  1       21 0.26833172E-01 0.12500000E+03</pdfrwt>
<totfact> 0.76257467E+06</totfact>
</mgrwt>
</event>
<event>
 6      0 +4.1053447e-01 1.25000000e+02 7.54677100e-03 1.12640300e-01
       21 -1    0    0  502  501 +0.0000000000e+00 +0.0000000000e+00 +4.4069539446e+01 4.4069539446e+01 0.0000000000e+00 0.0000e+00 -1.0000e+00
       21 -1    0    0  501  502 -0.0000000000e+00 -0.0000000000e+00 -8.8638321369e+01 8.8638321369e+01 0.0000000000e+00 0.0000e+00 -1.0000e+00
       25  2    1    2    0    0 +0.0000000000e+00 +0.0000000000e+00 -4.4568781923e+01 1.3270786081e+02 1.2500000000e+02 0.0000e+00 0.0000e+00
      -15  1    3    3    0    0 -1.1390952560e+01 +5.8743993520e+01 -3.2192875896e+00 5.9951081028e+01 1.7770000000e+00 0.0000e+00 -1.0000e+00
       15  1    3    3    0    0 +1.1390952566e+01 -5.8743993583e+01 -4.1349494357e+01 7.2756779719e+01 1.7770000000e+00 0.0000e+00 -1.0000e+00
       22  1    3    3    0    0 -6.2337487900e-09 +6.3905841078e-08 +2.2632262244e-08 6.8081094601e-08 0.0000000000e+00 0.0000e+00 -1.0000e+00
<mgrwt>
<rscale>  2 0.12500000E+03</rscale>
<asrwt>0</asrwt>
<pdfrwt beam="1">  1       21 0.64808147E-02 0.12500000E+03</pdfrwt>
<pdfrwt beam="2">  1       21 0.13035047E-01 0.12500000E+03</pdfrwt>
<totfact> 0.87609948E+06</totfact>
</mgrwt>
</event>
<event>
 6      0 +4.1053447e-01 1.25000000e+02 7.54677100e-03 1.12640300e-01
       21 -1    0    0  502  501 +0.0000000000e+00 +0.0000000000e+00 +1.5915213488e+01 1.5915213488e+01 0.0000000000e+00 0.0000e+00 1.0000e+00
       21 -1    0    0  501  502 -0.0000000000e+00 -0.0000000000e+00 -2.4544125675e+02 2.4544125675e+02 0.0000000000e+00 0.0000e+00 1.0000e+00
       25  2    1    2    0    0 +0.0000000000e+00 +0.0000000000e+00 -2.2952604326e+02 2.6135647024e+02 1.2500000000e+02 0.0000e+00 0.0000e+00
      -15  1    3    3    0    0 -3.5656007219e+01 -4.5639616910e+01 -1.6374283804e+02 1.7369283296e+02 1.7770000000e+00 0.0000e+00 -1.0000e+00
       15  1    3    3    0    0 +3.5656006827e+01 +4.5639616458e+01 -6.5783204566e+01 8.7663636391e+01 1.7770000000e+00 0.0000e+00 -1.0000e+00
       22  1    3    3    0    0 +3.9245832092e-07 +4.5235230515e-07 -6.4192255208e-07 8.7790130681e-07 0.0000000000e+00 0.0000e+00 1.0000e+00
<mgrwt>
<rscale>  2 0.12500000E+03</rscale>
<asrwt>0</asrwt>
<pdfrwt beam="1">  1       21 0.23404728E-02 0.12500000E+03</pdfrwt>
<pdfrwt beam="2">  1       21 0.36094300E-01 0.12500000E+03</pdfrwt>
<totfact> 0.68565141E+06</totfact>
</mgrwt>
</event>
<event>
 6      0 +4.1053447e-01 1.25000000e+02 7.54677100e-03 1.12640300e-01
       21 -1    0    0  502  501 +0.0000000000e+00 +0.0000000000e+00 +5.5574541150e+01 5.5574541150e+01 0.0000000000e+00 0.0000e+00 -1.0000e+00
       21 -1    0    0  501  502 -0.0000000000e+00 -0.0000000000e+00 -7.0288479566e+01 7.0288479566e+01 0.0000000000e+00 0.0000e+00 -1.0000e+00
       25  2    1    2    0    0 +0.0000000000e+00 +0.0000000000e+00 -1.4713938415e+01 1.2586302072e+02 1.2500000000e+02 0.0000e+00 0.0000e+00
      -15  1    3    3    0    0 -5.8749930024e+01 -2.0021319701e+01 -1.8850005932e-01 6.2093484213e+01 1.7770000000e+00 0.0000e+00 -1.0000e+00
       15  1    3    3    0    0 +5.8749929416e+01 +2.0021319321e+01 -1.4525439910e+01 6.3769534790e+01 1.7770000000e+00 0.0000e+00 -1.0000e+00
       22  1    3    3    0    0 +6.0800974581e-07 +3.7965840622e-07 +1.5550668522e-06 1.7123227707e-06 0.0000000000e+00 0.0000e+00 -1.0000e+00
<mgrwt>
<rscale>  2 0.12500000E+03</rscale>
<asrwt>0</asrwt>
<pdfrwt beam="1">  1       21 0.81727266E-02 0.12500000E+03</pdfrwt>
<pdfrwt beam="2">  1       21 0.10336541E-01 0.12500000E+03</pdfrwt>
<totfact> 0.88836612E+06</totfact>
</mgrwt>
</event>
<event>
 6      0 +4.1053447e-01 1.25000000e+02 7.54677100e-03 1.12640300e-01
       21 -1    0    0  502  501 +0.0000000000e+00 +0.0000000000e+00 +2.5814279214e+01 2.5814279214e+01 0.0000000000e+00 0.0000e+00 1.0000e+00
       21 -1    0    0  501  502 -0.0000000000e+00 -0.0000000000e+00 -1.5132128880e+02 1.5132128880e+02 0.0000000000e+00 0.0000e+00 1.0000e+00
       25  2    1    2    0    0 +0.0000000000e+00 +0.0000000000e+00 -1.2550700958e+02 1.7713556801e+02 1.2500000000e+02 0.0000e+00 0.0000e+00
      -15  1    3    3    0    0 +1.8089701514e+01 +3.9786329771e+01 -5.5057518024e+00 4.4086963713e+01 1.7770000000e+00 0.0000e+00 -1.0000e+00
       15  1    3    3    0    0 -2.2055108487e+01 -3.3749342679e+01 -5.8176208790e+01 7.0803071542e+01 1.7770000000e+00 0.0000e+00 -1.0000e+00
       22  1    3    3    0    0 +3.9654069722e+00 -6.0369870917e+00 -6.1825048986e+01 6.2245532753e+01 0.0000000000e+00 0.0000e+00 -1.0000e+00
<mgrwt>
<rscale>  2 0.12500000E+03</rscale>
<asrwt>0</asrwt>
<pdfrwt beam="1">  1       21 0.37962177E-02 0.12500000E+03</pdfrwt>
<pdfrwt beam="2">  1       21 0.22253130E-01 0.12500000E+03</pdfrwt>
<totfact> 0.80246911E+06</totfact>
</mgrwt>
</event>
<event>
 6      0 +4.1053447e-01 1.25000000e+02 7.54677100e-03 1.12640300e-01
       21 -1    0    0  502  501 +0.0000000000e+00 +0.0000000000e+00 +2.8411570990e+01 2.8411570990e+01 0.0000000000e+00 0.0000e+00 1.0000e+00
       21 -1    0    0  501  502 -0.0000000000e+00 -0.0000000000e+00 -1.3748799746e+02 1.3748799746e+02 0.0000000000e+00 0.0000e+00 1.0000e+00
       25  2    1    2    0    0 +0.0000000000e+00 +0.0000000000e+00 -1.0907642647e+02 1.6589956845e+02 1.2500000000e+02 0.0000e+00 0.0000e+00
      -15  1    3    3    0    0 +1.4206875558e+01 -2.5974242035e+01 +8.6661083895e+00 3.0899121767e+01 1.7770000000e+00 0.0000e+00 -1.0000e+00
       15  1    3    3    0    0 +2.0152239797e+00 +2.8111469773e+01 -1.7050755006e+01 3.2987904385e+01 1.7770000000e+00 0.0000e+00 -1.0000e+00
       22  1    3    3    0    0 -1.6222099538e+01 -2.1372277383e+00 -1.0069177985e+02 1.0201254229e+02 0.0000000000e+00 0.0000e+00 -1.0000e+00
<mgrwt>
<rscale>  2 0.12500000E+03</rscale>
<asrwt>0</asrwt>
<pdfrwt beam="1">  1       21 0.41781722E-02 0.12500000E+03</pdfrwt>
<pdfrwt beam="2">  1       21 0.20218823E-01 0.12500000E+03</pdfrwt>
<totfact> 0.82020668E+06</totfact>
</mgrwt>
</event>
<event>
 6      0 +4.1053447e-01 1.25000000e+02 7.54677100e-03 1.12640300e-01
       21 -1    0    0  502  501 +0.0000000000e+00 +0.0000000000e+00 +3.2323276515e+01 3.2323276515e+01 0.0000000000e+00 0.0000e+00 -1.0000e+00
       21 -1    0    0  501  502 -0.0000000000e+00 -0.0000000000e+00 -1.2084944415e+02 1.2084944415e+02 0.0000000000e+00 0.0000e+00 -1.0000e+00
       25  2    1    2    0    0 +0.0000000000e+00 +0.0000000000e+00 -8.8526167638e+01 1.5317272067e+02 1.2500000000e+02 0.0000e+00 0.0000e+00
      -15  1    3    3    0    0 +5.2167951962e+01 +2.0661443834e+01 -1.0599630529e+01 5.7130555481e+01 1.7770000000e+00 0.0000e+00 -1.0000e+00
       15  1    3    3    0    0 -5.2165600817e+01 -2.0660769703e+01 -7.7922525930e+01 9.6037467114e+01 1.7770000000e+00 0.0000e+00 -1.0000e+00
       22  1    3    3    0    0 -2.3511443913e-03 -6.7413135758e-04 -4.0111772277e-03 4.6980714966e-03 0.0000000000e+00 0.0000e+00 -1.0000e+00
<mgrwt>
<rscale>  2 0.12500000E+03</rscale>
<asrwt>0</asrwt>
<pdfrwt beam="1">  1       21 0.47534231E-02 0.12500000E+03</pdfrwt>
<pdfrwt beam="2">  1       21 0.17771977E-01 0.12500000E+03</pdfrwt>
<totfact> 0.84096862E+06</totfact>
</mgrwt>
</event>
<event>
 6      0 +4.1053447e-01 1.25000000e+02 7.54677100e-03 1.12640300e-01
       21 -1    0    0  502  501 +0.0000000000e+00 +0.0000000000e+00 +2.6679705977e+01 2.6679705977e+01 0.0000000000e+00 0.0000e+00 1.0000e+00
       21 -1    0    0  501  502 -0.0000000000e+00 -0.0000000000e+00 -1.4641278293e+02 1.4641278293e+02 0.0000000000e+00 0.0000e+00 1.0000e+00
       25  2    1    2    0    0 +0.0000000000e+00 +0.0000000000e+00 -1.1973307696e+02 1.7309248891e+02 1.2500000000e+02 0.0000e+00 0.0000e+00
      -15  1    3    3    0    0 +4.7345839011e+01 -3.9471348621e+01 -7.3952579331e+01 9.6289966001e+01 1.7770000000e+00 0.0000e+00 1.0000e+00
       15  1    3    3    0    0 -4.7345839011e+01 +3.9471348621e+01 -4.5780497633e+01 7.6802522915e+01 1.7770000000e+00 0.0000e+00 1.0000e+00
       22  1    3    3    0    0 -4.3071436151e-10 +2.4034578575e-10 -1.6744497046e-10 5.2088268936e-10 0.0000000000e+00 0.0000e+00 1.0000e+00
<mgrwt>
<rscale>  2 0.12500000E+03</rscale>
<asrwt>0</asrwt>
<pdfrwt beam="1">  1       21 0.39234863E-02 0.12500000E+03</pdfrwt>
<pdfrwt beam="2">  1       21 0.21531291E-01 0.12500000E+03</pdfrwt>
<totfact> 0.80876290E+06</totfact>
</mgrwt>
</event>
<event>
 6      0 +4.1053447e-01 1.25000000e+02 7.54677100e-03 1.12640300e-01
       21 -1    0    0  502  501 +0.0000000000e+00 +0.0000000000e+00 +1.3185476455e+02 1.3185476455e+02 0.0000000000e+00 0.0000e+00 -1.0000e+00
       21 -1    0    0  501  502 -0.0000000000e+00 -0.0000000000e+00 -2.9625398925e+01 2.9625398925e+01 0.0000000000e+00 0.0000e+00 -1.0000e+00
       25  2    1    2    0    0 +0.0000000000e+00 +0.0000000000e+00 +1.0222936563e+02 1.6148016348e+02 1.2500000000e+02 0.0000e+00 0.0000e+00
      -15  1    3    3    0    0 -4.1820244298e+01 +4.6399237359e+01 +4.9658733255e+01 7.9818353643e+01 1.7770000000e+00 0.0000e+00 -1.0000e+00
       15  1    3    3    0    0 +4.1820175161e+01 -4.6399157864e+01 +5.2570544878e+01 8.1661672887e+01 1.7770000000e+00 0.0000e+00 -1.0000e+00
       22  1    3    3    0    0 +6.9137221961e-05 -7.9494940930e-05 +8.7496084908e-05 1.3694877133e-04 0.0000000000e+00 0.0000e+00 1.0000e+00
<mgrwt>
<rscale>  2 0.12500000E+03</rscale>
<asrwt>0</asrwt>
<pdfrwt beam="1">  1       21 0.19390406E-01 0.12500000E+03</pdfrwt>
<pdfrwt beam="2">  1       21 0.43566764E-02 0.12500000E+03</pdfrwt>
<totfact> 0.82737810E+06</totfact>
</mgrwt>
</event>
<event>
 6      0 +4.1053447e-01 1.25000000e+02 7.54677100e-03 1.12640300e-01
       21 -1    0    0  502  501 +0.0000000000e+00 +0.0000000000e+00 +1.3966505511e+02 1.3966505511e+02 0.0000000000e+00 0.0000e+00 1.0000e+00
       21 -1    0    0  501  502 -0.0000000000e+00 -0.0000000000e+00 -2.7968699808e+01 2.7968699808e+01 0.0000000000e+00 0.0000e+00 1.0000e+00
       25  2    1    2    0    0 +0.0000000000e+00 +0.0000000000e+00 +1.1169635530e+02 1.6763375492e+02 1.2500000000e+02 0.0000e+00 0.0000e+00
      -15  1    3    3    0    0 -9.5707116768e+00 -3.2098879276e+01 -1.4875381542e+01 3.6692932259e+01 1.7770000000e+00 0.0000e+00 -1.0000e+00
       15  1    3    3    0    0 +9.5707118127e+00 +3.2098879814e+01 +1.2657173678e+02 1.3094082210e+02 1.7770000000e+00 0.0000e+00 -1.0000e+00
       22  1    3    3    0    0 -1.3584298440e-07 -5.3773497706e-07 +5.2930008500e-08 5.5714792269e-07 0.0000000000e+00 0.0000e+00 -1.0000e+00
<mgrwt>
<rscale>  2 0.12500000E+03</rscale>
<asrwt>0</asrwt>
<pdfrwt beam="1">  1       21 0.20538978E-01 0.12500000E+03</pdfrwt>
<pdfrwt beam="2">  1       21 0.41130441E-02 0.12500000E+03</pdfrwt>
<totfact> 0.81741649E+06</totfact>
</mgrwt>
</event>
<event>
 6      0 +4.1053447e-01 1.25000000e+02 7.54677100e-03 1.12640300e-01
       21 -1    0    0  502  501 +0.0000000000e+00 +0.0000000000e+00 +1.3558524868e+02 1.3558524868e+02 0.0000000000e+00 0.0000e+00 -1.0000e+00
       21 -1    0    0  501  502 -0.0000000000e+00 -0.0000000000e+00 -2.8810287535e+01 2.8810287535e+01 0.0000000000e+00 0.0000e+00 -1.0000e+00
       25  2    1    2    0    0 +0.0000000000e+00 +0.0000000000e+00 +1.0677496115e+02 1.6439553622e+02 1.2500000000e+02 0.0000e+00 0.0000e+00
      -15  1    3    3    0    0 +2.8715162747e+01 +3.0513529049e+01 -7.5580929173e+00 4.2613595532e+01 1.7770000000e+00 0.0000e+00 -1.0000e+00
       15  1    3    3    0    0 -2.8715163146e+01 -3.0513529197e+01 +1.1433305326e+02 1.2178193977e+02 1.7770000000e+00 0.0000e+00 -1.0000e+00
       22  1    3    3    0    0 +3.9865287208e-07 +1.4789835277e-07 +8.0961888952e-07 9.1448388802e-07 0.0000000000e+00 0.0000e+00 1.0000e+00
<mgrwt>
<rscale>  2 0.12500000E+03</rscale>
<asrwt>0</asrwt>
<pdfrwt beam="1">  1       21 0.19939007E-01 0.12500000E+03</pdfrwt>
<pdfrwt beam="2">  1       21 0.42368070E-02 0.12500000E+03</pdfrwt>
<totfact> 0.82264274E+06</totfact>
</mgrwt>
</event>
<event>
 6      0 +4.1053447e-01 1.25000000e+02 7.54677100e-03 1.12640300e-01
       21 -1    0    0  502  501 +0.0000000000e+00 +0.0000000000e+00 +1.3092526782e+01 1.3092526782e+01 0.0000000000e+00 0.0000e+00 1.0000e+00
       21 -1    0    0  501  502 -0.0000000000e+00 -0.0000000000e+00 -2.9835722814e+02 2.9835722814e+02 0.0000000000e+00 0.0000e+00 1.0000e+00
       25  2    1    2    0    0 +0.0000000000e+00 +0.0000000000e+00 -2.8526470136e+02 3.1144975492e+02 1.2500000000e+02 0.0000e+00 0.0000e+00
      -15  1    3    3    0    0 -2.7165553817e+01 -1.0829004292e+01 -5.0776873610e+00 2.9735085104e+01 1.7770000000e+00 0.0000e+00 1.0000e+00
       15  1    3    3    0    0 +2.7165553817e+01 +1.0829004292e+01 -2.8018701402e+02 2.8171466984e+02 1.7770000000e+00 0.0000e+00 1.0000e+00
       22  1    3    3    0    0 -1.4608829216e-10 -1.3293731868e-10 -6.9830378337e-11 2.0950036168e-10 0.0000000000e+00 0.0000e+00 1.0000e+00
<mgrwt>
<rscale>  2 0.12500000E+03</rscale>
<asrwt>0</asrwt>
<pdfrwt beam="1">  1       21 0.19253715E-02 0.12500000E+03</pdfrwt>
<pdfrwt beam="2">  1       21 0.43876065E-01 0.12500000E+03</pdfrwt>
<totfact> 0.62652448E+06</totfact>
</mgrwt>
</event>
<event>
 6      0 +4.1053447e-01 1.25000000e+02 7.54677100e-03 1.12640300e-01
       21 -1    0    0  502  501 +0.0000000000e+00 +0.0000000000e+00 +2.7303474802e+01 2.7303474802e+01 0.0000000000e+00 0.0000e+00 -1.0000e+00
       21 -1    0    0  501  502 -0.0000000000e+00 -0.0000000000e+00 -1.4306787060e+02 1.4306787060e+02 0.0000000000e+00 0.0000e+00 -1.0000e+00
       25  2    1    2    0    0 +0.0000000000e+00 +0.0000000000e+00 -1.1576439580e+02 1.7037134541e+02 1.2500000000e+02 0.0000e+00 0.0000e+00
      -15  1    3    3    0    0 -4.2516198088e+01 +7.4934562866e+00 +3.6155782078e+00 4.3359071966e+01 1.7770000000e+00 0.0000e+00 -1.0000e+00
       15  1    3    3    0    0 +2.9641887541e+01 -3.9064203236e+00 -8.5298468709e+01 9.0404027067e+01 1.7770000000e+00 0.0000e+00 -1.0000e+00
       22  1    3    3    0    0 +1.2874310548e+01 -3.5870359630e+00 -3.4081505292e+01 3.6608246366e+01 0.0000000000e+00 0.0000e+00 -1.0000e+00
<mgrwt>
<rscale>  2 0.12500000E+03</rscale>
<asrwt>0</asrwt>
<pdfrwt beam="1">  1       21 0.40152169E-02 0.12500000E+03</pdfrwt>
<pdfrwt beam="2">  1       21 0.21039393E-01 0.12500000E+03</pdfrwt>
<totfact> 0.81305300E+06</totfact>
</mgrwt>
</event>
<event>
 6      0 +4.1053447e-01 1.25000000e+02 7.54677100e-03 1.12640300e-01
       21 -1    0    0  502  501 +0.0000000000e+00 +0.0000000000e+00 +4.6668184693e+02 4.6668184693e+02 0.0000000000e+00 0.0000e+00 1.0000e+00
       21 -1    0    0  501  502 -0.0000000000e+00 -0.0000000000e+00 -8.3702634369e+00 8.3702634369e+00 0.0000000000e+00 0.0000e+00 1.0000e+00
       25  2    1    2    0    0 +0.0000000000e+00 +0.0000000000e+00 +4.5831158349e+02 4.7505211036e+02 1.2500000000e+02 0.0000e+00 0.0000e+00
      -15  1    3    3    0    0 -5.1524072637e+01 -1.6042935020e+01 +3.4879255123e+02 3.5294689026e+02 1.7770000000e+00 0.0000e+00 1.0000e+00
       15  1    3    3    0    0 +5.1524079365e+01 +1.6042934304e+01 +1.0951895063e+02 1.2210513818e+02 1.7770000000e+00 0.0000e+00 1.0000e+00
       22  1    3    3    0    0 -6.7280826686e-06 +7.1606094865e-07 +8.1693316307e-05 8.1973030741e-05 0.0000000000e+00 0.0000e+00 -1.0000e+00
<mgrwt>
<rscale>  2 0.12500000E+03</rscale>
<asrwt>0</asrwt>
<pdfrwt beam="1">  1       21 0.68629666E-01 0.12500000E+03</pdfrwt>
<pdfrwt beam="2">  1       21 0.12309214E-02 0.12500000E+03</pdfrwt>
<totfact> 0.47241998E+06</totfact>
</mgrwt>
</event>
<event>
 6      0 +4.1053447e-01 1.25000000e+02 7.54677100e-03 1.12640300e-01
       21 -1    0    0  502  501 +0.0000000000e+00 +0.0000000000e+00 +1.4077467664e+02 1.4077467664e+02 0.0000000000e+00 0.0000e+00 -1.0000e+00
       21 -1    0    0  501  502 -0.0000000000e+00 -0.0000000000e+00 -2.7748243458e+01 2.7748243458e+01 0.0000000000e+00 0.0000e+00 -1.0000e+00
       25  2    1    2    0    0 +0.0000000000e+00 +0.0000000000e+00 +1.1302643318e+02 1.6852292009e+02 1.2500000000e+02 0.0000e+00 0.0000e+00
      -15  1    3    3    0    0 -1.9247371927e+01 -1.7157299504e+01 +2.0130970292e+01 3.2760463157e+01 1.7770000000e+00 0.0000e+00 -1.0000e+00
       15  1    3    3    0    0 +5.5166390804e+01 +2.6269846642e+01 +4.9190847595e+01 7.8462301350e+01 1.7770000000e+00 0.0000e+00 -1.0000e+00
       22  1    3    3    0    0 -3.5919018877e+01 -9.1125471383e+00 +4.3704615300e+01 5.7300155592e+01 0.0000000000e+00 0.0000e+00 -1.0000e+00
<mgrwt>
<rscale>  2 0.12500000E+03</rscale>
<asrwt>0</asrwt>
<pdfrwt beam="1">  1       21 0.20702158E-01 0.12500000E+03</pdfrwt>
<pdfrwt beam="2">  1       21 0.40806241E-02 0.12500000E+03</pdfrwt>
<totfact> 0.81599382E+06</totfact>
</mgrwt>
</event>
<event>
 6      0 +4.1053447e-01 1.25000000e+02 7.54677100e-03 1.12640300e-01
       21 -1    0    0  502  501 +0.0000000000e+00 +0.0000000000e+00 +3.1546376711e+02 3.1546376711e+02 0.0000000000e+00 0.0000e+00 -1.0000e+00
       21 -1    0    0  501  502 -0.0000000000e+00 -0.0000000000e+00 -1.2382563093e+01 1.2382563093e+01 0.0000000000e+00 0.0000e+00 -1.0000e+00
       25  2    1    2    0    0 +0.0000000000e+00 +0.0000000000e+00 +3.0308120402e+02 3.2784633021e+02 1.2500000000e+02 0.0000e+00 0.0000e+00
      -15  1    3    3    0    0 +3.4954448744e+01 +2.3782295786e+01 +2.7217893557e+02 2.7544861912e+02 1.7770000000e+00 0.0000e+00 -1.0000e+00
       15  1    3    3    0    0 -3.4954451170e+01 -2.3782297324e+01 +3.0902248483e+01 5.2397690913e+01 1.7770000000e+00 0.0000e+00 -1.0000e+00
       22  1    3    3    0    0 +2.4265327891e-06 +1.5383742746e-06 +1.9948265080e-05 2.0154104705e-05 0.0000000000e+00 0.0000e+00 1.0000e+00
<mgrwt>
<rscale>  2 0.12500000E+03</rscale>
<asrwt>0</asrwt>
<pdfrwt beam="1">  1       21 0.46391725E-01 0.12500000E+03</pdfrwt>
<pdfrwt beam="2">  1       21 0.18209654E-02 0.12500000E+03</pdfrwt>
<totfact> 0.60854412E+06</totfact>
</mgrwt>
</event>
<event>
 6      0 +4.1053447e-01 1.25000000e+02 7.54677100e-03 1.12640300e-01
       21 -1    0    0  502  501 +0.0000000000e+00 +0.0000000000e+00 +1.8684025482e+01 1.8684025482e+01 0.0000000000e+00 0.0000e+00 -1.0000e+00
       21 -1    0    0  501  502 -0.0000000000e+00 -0.0000000000e+00 -2.0906897199e+02 2.0906897199e+02 0.0000000000e+00 0.0000e+00 -1.0000e+00
       25  2    1    2    0    0 +0.0000000000e+00 +0.0000000000e+00 -1.9038494651e+02 2.2775299747e+02 1.2500000000e+02 0.0000e+00 0.0000e+00
      -15  1    3    3    0    0 -5.7447099553e+01 -9.1227236268e+00 -1.3672889482e+02 1.4859791970e+02 1.7770000000e+00 0.0000e+00 1.0000e+00
       15  1    3    3    0    0 +5.7447060222e+01 +9.1227657259e+00 -5.3656023848e+01 7.9155013782e+01 1.7770000000e+00 0.0000e+00 1.0000e+00
       22  1    3    3    0    0 +3.9331409342e-05 -4.2099093428e-05 -2.7851960679e-05 6.3992383469e-05 0.0000000000e+00 0.0000e+00 -1.0000e+00
<mgrwt>
<rscale>  2 0.12500000E+03</rscale>
<asrwt>0</asrwt>
<pdfrwt beam="1">  1       21 0.27476508E-02 0.12500000E+03</pdfrwt>
<pdfrwt beam="2">  1       21 0.30745437E-01 0.12500000E+03</pdfrwt>
<totfact> 0.72939628E+06</totfact>
</mgrwt>
</event>
<event>
 6      0 +4.1053447e-01 1.25000000e+02 7.54677100e-03 1.12640300e-01
       21 -1    0    0  502  501 +0.0000000000e+00 +0.0000000000e+00 +4.3065722053e+02 4.3065722053e+02 0.0000000000e+00 0.0000e+00 1.0000e+00
       21 -1    0    0  501  502 -0.0000000000e+00 -0.0000000000e+00 -9.0704388868e+00 9.0704388868e+00 0.0000000000e+00 0.0000e+00 1.0000e+00
       25  2    1    2    0    0 +0.0000000000e+00 +0.0000000000e+00 +4.2158678165e+02 4.3972765942e+02 1.2500000000e+02 0.0000e+00 0.0000e+00
      -15  1    3    3    0    0 +1.9161367585e+01 -5.6347007652e+01 +2.7762727175e+02 2.8394049206e+02 1.7770000000e+00 0.0000e+00 -1.0000e+00
       15  1    3    3    0    0 -1.9161367753e+01 +5.6347007486e+01 +1.4395950960e+02 1.5578716699e+02 1.7770000000e+00 0.0000e+00 -1.0000e+00
       22  1    3    3    0    0 +1.6769274349e-07 +1.6525864868e-07 +3.3641943289e-07 4.1062064246e-07 0.0000000000e+00 0.0000e+00 -1.0000e+00
<mgrwt>
<rscale>  2 0.12500000E+03</rscale>
<asrwt>0</asrwt>
<pdfrwt beam="1">  1       21 0.63331930E-01 0.12500000E+03</pdfrwt>
<pdfrwt beam="2">  1       21 0.13338884E-02 0.12500000E+03</pdfrwt>
<totfact> 0.50138461E+06</totfact>
</mgrwt>
</event>
<event>
 6      0 +4.1053447e-01 1.25000000e+02 7.54677100e-03 1.12640300e-01
       21 -1    0    0  502  501 +0.0000000000e+00 +0.0000000000e+00 +5.0144520386e+01 5.0144520386e+01 0.0000000000e+00 0.0000e+00 1.0000e+00
       21 -1    0    0  501  502 -0.0000000000e+00 -0.0000000000e+00 -7.7899837707e+01 7.7899837707e+01 0.0000000000e+00 0.0000e+00 1.0000e+00
       25  2    1    2    0    0 +0.0000000000e+00 +0.0000000000e+00 -2.7755317321e+01 1.2804435809e+02 1.2500000000e+02 0.0000e+00 0.0000e+00
      -15  1    3    3    0    0 -5.2018447926e+01 -7.4253148915e+00 +2.0739442971e+01 5.6518461139e+01 1.7770000000e+00 0.0000e+00 -1.0000e+00
       15  1    3    3    0    0 +5.2018448728e+01 +7.4253148985e+00 -4.8494760351e+01 7.1525896149e+01 1.7770000000e+00 0.0000e+00 -1.0000e+00
       22  1    3    3    0    0 -8.0274720523e-07 -6.9530971661e-09 +5.8868351584e-08 8.0493285675e-07 0.0000000000e+00 0.0000e+00 -1.0000e+00
<mgrwt>
<rscale>  2 0.12500000E+03</rscale>
<asrwt>0</asrwt>
<pdfrwt beam="1">  1       21 0.73741941E-02 0.12500000E+03</pdfrwt>
<pdfrwt beam="2">  1       21 0.11455859E-01 0.12500000E+03</pdfrwt>
<totfact> 0.88449853E+06</totfact>
</mgrwt>
</event>
<event>
 6      0 +4.1053447e-01 1.25000000e+02 7.54677100e-03 1.12640300e-01
       21 -1    0    0  502  501 +0.0000000000e+00 +0.0000000000e+00 +5.6783411608e+02 5.6783411608e+02 0.0000000000e+00 0.0000e+00 1.0000e+00
       21 -1    0    0  501  502 -0.0000000000e+00 -0.0000000000e+00 -6.8792097716e+00 6.8792097716e+00 0.0000000000e+00 0.0000e+00 1.0000e+00
       25  2    1    2    0    0 +0.0000000000e+00 +0.0000000000e+00 +5.6095490631e+02 5.7471332585e+02 1.2500000000e+02 0.0000e+00 0.0000e+00
      -15  1    3    3    0    0 -2.0114360381e+01 -8.1263862274e+00 +1.1110444418e+01 2.4438194509e+01 1.7770000000e+00 0.0000e+00 1.0000e+00
       15  1    3    3    0    0 +2.0114409158e+01 +8.1263872932e+00 +5.4984379980e+02 5.5027446745e+02 1.7770000000e+00 0.0000e+00 1.0000e+00
       22  1    3    3    0    0 -4.8777123460e-05 -1.0657466552e-06 +6.6216189429e-04 6.6395686444e-04 0.0000000000e+00 0.0000e+00 -1.0000e+00
<mgrwt>
<rscale>  2 0.12500000E+03</rscale>
<asrwt>0</asrwt>
<pdfrwt beam="1">  1       21 0.83504985E-01 0.12500000E+03</pdfrwt>
<pdfrwt beam="2">  1       21 0.10116489E-02 0.12500000E+03</pdfrwt>
<totfact> 0.40155930E+06</totfact>
</mgrwt>
</event>
<event>
 6      0 +4.1053447e-01 1.25000000e+02 7.54677100e-03 1.12640300e-01
       21 -1    0    0  502  501 +0.0000000000e+00 +0.0000000000e+00 +3.5441034760e+01 3.5441034760e+01 0.0000000000e+00 0.0000e+00 1.0000e+00
       21 -1    0    0  501  502 -0.0000000000e+00 -0.0000000000e+00 -1.1021828303e+02 1.1021828303e+02 0.0000000000e+00 0.0000e+00 1.0000e+00
       25  2    1    2    0    0 +0.0000000000e+00 +0.0000000000e+00 -7.4777248268e+01 1.4565931779e+02 1.2500000000e+02 0.0000e+00 0.0000e+00
      -15  1    3    3    0    0 -1.5172673965e+01 +5.2232564922e+00 +3.2969248655e+01 3.6709964989e+01 1.7770000000e+00 0.0000e+00 -1.0000e+00
       15  1    3    3    0    0 +1.5168400783e+01 -5.2209982675e+00 -1.0771053852e+02 1.0891307103e+02 1.7770000000e+00 0.0000e+00 -1.0000e+00
       22  1    3    3    0    0 +4.2731822437e-03 -2.2582247336e-03 -3.5958405177e-02 3.6281766334e-02 0.0000000000e+00 0.0000e+00 -1.0000e+00
<mgrwt>
<rscale>  2 0.12500000E+03</rscale>
<asrwt>0</asrwt>
<pdfrwt beam="1">  1       21 0.52119168E-02 0.12500000E+03</pdfrwt>
<pdfrwt beam="2">  1       21 0.16208571E-01 0.12500000E+03</pdfrwt>
<totfact> 0.85361075E+06</totfact>
</mgrwt>
</event>
<event>
 6      0 +4.1053447e-01 1.25000000e+02 7.54677100e-03 1.12640300e-01
       21 -1    0    0  502  501 +0.0000000000e+00 +0.0000000000e+00 +3.9543935963e+00 3.9543935963e+00 0.0000000000e+00 0.0000e+00 1.0000e+00
       21 -1    0    0  501  502 -0.0000000000e+00 -0.0000000000e+00 -9.8782528974e+02 9.8782528974e+02 0.0000000000e+00 0.0000e+00 1.0000e+00
       25  2    1    2    0    0 +0.0000000000e+00 +0.0000000000e+00 -9.8387089615e+02 9.9177968334e+02 1.2500000000e+02 0.0000e+00 0.0000e+00
      -15  1    3    3    0    0 +2.3939711325e+01 +1.9230656378e+01 -9.2356522465e+02 9.2407727482e+02 1.7770000000e+00 0.0000e+00 1.0000e+00
       15  1    3    3    0    0 -2.3940403922e+01 -1.9230188942e+01 -6.0255627457e+01 6.7652357505e+01 1.7770000000e+00 0.0000e+00 1.0000e+00
       22  1    3    3    0    0 +6.9259733460e-04 -4.6743566365e-04 -5.0044203914e-02 5.0051179133e-02 0.0000000000e+00 0.0000e+00 -1.0000e+00
<mgrwt>
<rscale>  2 0.12500000E+03</rscale>
<asrwt>0</asrwt>
<pdfrwt beam="1">  1       21 0.58152843E-03 0.12500000E+03</pdfrwt>
<pdfrwt beam="2">  1       21 0.14526844E+00 0.12500000E+03</pdfrwt>
<totfact> 0.21427817E+06</totfact>
</mgrwt>
</event>
<event>
 6      0 +4.1053447e-01 1.25000000e+02 7.54677100e-03 1.12640300e-01
       21 -1    0    0  502  501 +0.0000000000e+00 +0.0000000000e+00 +6.6561060345e+01 6.6561060345e+01 0.0000000000e+00 0.0000e+00 1.0000e+00
       21 -1    0    0  501  502 -0.0000000000e+00 -0.0000000000e+00 -5.8686715322e+01 5.8686715322e+01 0.0000000000e+00 0.0000e+00 1.0000e+00
       25  2    1    2    0    0 +0.0000000000e+00 +0.0000000000e+00 +7.8743450238e+00 1.2524777567e+02 1.2500000000e+02 0.0000e+00 0.0000e+00
      -15  1    3    3    0    0 +1.6420153606e+01 +5.5766303642e+01 +2.6822853196e+01 6.4047835630e+01 1.7770000000e+00 0.0000e+00 1.0000e+00
       15  1    3    3    0    0 -1.6422493775e+01 -5.5778340203e+01 -1.8958438018e+01 6.1184161665e+01 1.7770000000e+00 0.0000e+00 1.0000e+00
       22  1    3    3    0    0 +2.3401683341e-03 +1.2036561183e-02 +9.9298448784e-03 1.5778371660e-02 0.0000000000e+00 0.0000e+00 -1.0000e+00
<mgrwt>
<rscale>  2 0.12500000E+03</rscale>
<asrwt>0</asrwt>
<pdfrwt beam="1">  1       21 0.97883912E-02 0.12500000E+03</pdfrwt>
<pdfrwt beam="2">  1       21 0.86303993E-02 0.12500000E+03</pdfrwt>
<totfact> 0.88951409E+06</totfact>
</mgrwt>
</event>
<event>
 6      0 +4.1053447e-01 1.25000000e+02 7.54677100e-03 1.12640300e-01
       21 -1    0    0  502  501 +0.0000000000e+00 +0.0000000000e+00 +8.4700097415e+01 8.4700097415e+01 0.0000000000e+00 0.0000e+00 -1.0000e+00
       21 -1    0    0  501  502 -0.0000000000e+00 -0.0000000000e+00 -4.6118601032e+01 4.6118601032e+01 0.0000000000e+00 0.0000e+00 -1.0000e+00
       25  2    1    2    0    0 +0.0000000000e+00 +0.0000000000e+00 +3.8581496383e+01 1.3081869845e+02 1.2500000000e+02 0.0000e+00 0.0000e+00
      -15  1    3    3    0    0 -2.6870128508e+01 -2.1861838388e+01 -3.5121260622e+01 4.9361973831e+01 1.7770000000e+00 0.0000e+00 -1.0000e+00
       15  1    3    3    0    0 +2.6869803390e+01 +2.1861588562e+01 +7.3701837695e+01 8.1455718015e+01 1.7770000000e+00 0.0000e+00 -1.0000e+00
       22  1    3    3    0    0 +3.2511790572e-04 +2.4982584365e-04 +9.1930853445e-04 1.0065996157e-03 0.0000000000e+00 0.0000e+00 -1.0000e+00
<mgrwt>
<rscale>  2 0.12500000E+03</rscale>
<asrwt>0</asrwt>
<pdfrwt beam="1">  1       21 0.12455897E-01 0.12500000E+03</pdfrwt>
<pdfrwt beam="2">  1       21 0.67821472E-02 0.12500000E+03</pdfrwt>
<totfact> 0.87948900E+06</totfact>
</mgrwt>
</event>
<event>
 6      0 +4.1053447e-01 1.25000000e+02 7.54677100e-03 1.12640300e-01
       21 -1    0    0  502  501 +0.0000000000e+00 +0.0000000000e+00 +6.4064605844e+00 6.4064605844e+00 0.0000000000e+00 0.0000e+00 -1.0000e+00
       21 -1    0    0  501  502 -0.0000000000e+00 -0.0000000000e+00 -6.0973605450e+02 6.0973605450e+02 0.0000000000e+00 0.0000e+00 -1.0000e+00
       25  2    1    2    0    0 +0.0000000000e+00 +0.0000000000e+00 -6.0332959391e+02 6.1614251508e+02 1.2500000000e+02 0.0000e+00 0.0000e+00
      -15  1    3    3    0    0 +5.6764385447e+01 +2.5245347797e+01 -2.6912927480e+02 2.7621232290e+02 1.7770000000e+00 0.0000e+00 1.0000e+00
       15  1    3    3    0    0 -5.6764390873e+01 -2.5245350319e+01 -3.3420028425e+02 3.3993015680e+02 1.7770000000e+00 0.0000e+00 1.0000e+00
       22  1    3    3    0    0 +5.4258474898e-06 +2.5213835725e-06 -3.4837877947e-05 3.5347912752e-05 0.0000000000e+00 0.0000e+00 -1.0000e+00
<mgrwt>
<rscale>  2 0.12500000E+03</rscale>
<asrwt>0</asrwt>
<pdfrwt beam="1">  1       21 0.94212678E-03 0.12500000E+03</pdfrwt>
<pdfrwt beam="2">  1       21 0.89667045E-01 0.12500000E+03</pdfrwt>
<totfact> 0.37509548E+06</totfact>
</mgrwt>
</event>
<event>
 6      0 +4.1053447e-01 1.25000000e+02 7.54677100e-03 1.12640300e-01
       21 -1    0    0  502  501 +0.0000000000e+00 +0.0000000000e+00 +1.5339567747e+02 1.5339567747e+02 0.0000000000e+00 0.0000e+00 -1.0000e+00
       21 -1    0    0  501  502 -0.0000000000e+00 -0.0000000000e+00 -2.5465189531e+01 2.5465189531e+01 0.0000000000e+00 0.0000e+00 -1.0000e+00
       25  2    1    2    0    0 +0.0000000000e+00 +0.0000000000e+00 +1.2793048794e+02 1.7886086700e+02 1.2500000000e+02 0.0000e+00 0.0000e+00
      -15  1    3    3    0    0 -1.0355897487e+01 +5.8348836647e+00 +1.5172658836e+02 1.5220185881e+02 1.7770000000e+00 0.0000e+00 -1.0000e+00
       15  1    3    3    0    0 +1.0355897583e+01 -5.8348836706e+00 -2.3796101522e+01 2.6659007087e+01 1.7770000000e+00 0.0000e+00 -1.0000e+00
       22  1    3    3    0    0 -9.6203383365e-08 +5.9121073965e-09 +1.1010985167e-06 1.1053090009e-06 0.0000000000e+00 0.0000e+00 1.0000e+00
<mgrwt>
<rscale>  2 0.12500000E+03</rscale>
<asrwt>0</asrwt>
<pdfrwt beam="1">  1       21 0.22558188E-01 0.12500000E+03</pdfrwt>
<pdfrwt beam="2">  1       21 0.37448809E-02 0.12500000E+03</pdfrwt>
<totfact> 0.79981066E+06</totfact>
</mgrwt>
</event>
<event>
 6      0 +4.1053447e-01 1.25000000e+02 7.54677100e-03 1.12640300e-01
       21 -1    0    0  502  501 +0.0000000000e+00 +0.0000000000e+00 +4.2502620020e+02 4.2502620020e+02 0.0000000000e+00 0.0000e+00 1.0000e+00
       21 -1    0    0  501  502 -0.0000000000e+00 -0.0000000000e+00 -9.1906098922e+00 9.1906098922e+00 0.0000000000e+00 0.0000e+00 1.0000e+00
       25  2    1    2    0    0 +0.0000000000e+00 +0.0000000000e+00 +4.1583559031e+02 4.3421681009e+02 1.2500000000e+02 0.0000e+00 0.0000e+00
      -15  1    3    3    0    0 -4.9701139840e+01 +2.4713447502e+01 +3.0751977184e+02 3.1249404089e+02 1.7770000000e+00 0.0000e+00 1.0000e+00
       15  1    3    3    0    0 +4.9701127712e+01 -2.4713450343e+01 +1.0831577686e+02 1.2172272578e+02 1.7770000000e+00 0.0000e+00 1.0000e+00
       22  1    3    3    0    0 +1.2128280037e-05 +2.8403668363e-06 +4.1653763484e-05 4.3476417433e-05 0.0000000000e+00 0.0000e+00 1.0000e+00
<mgrwt>
<rscale>  2 0.12500000E+03</rscale>
<asrwt>0</asrwt>
<pdfrwt beam="1">  1       21 0.62503840E-01 0.12500000E+03</pdfrwt>
<pdfrwt beam="2">  1       21 0.13515606E-02 0.12500000E+03</pdfrwt>
<totfact> 0.50608919E+06</totfact>
</mgrwt>
</event>
<event>
 6      0 +4.1053447e-01 1.25000000e+02 7.54677100e-03 1.12640300e-01
       21 -1    0    0  502  501 +0.0000000000e+00 +0.0000000000e+00 +1.6915863071e+01 1.6915863071e+01 0.0000000000e+00 0.0000e+00 1.0000e+00
       21 -1    0    0  501  502 -0.0000000000e+00 -0.0000000000e+00 -2.3092229960e+02 2.3092229960e+02 0.0000000000e+00 0.0000e+00 1.0000e+00
       25  2    1    2    0    0 +0.0000000000e+00 +0.0000000000e+00 -2.1400643653e+02 2.4783816267e+02 1.2500000000e+02 0.0000e+00 0.0000e+00
      -15  1    3    3    0    0 +3.9045753366e+01 +2.6640880980e+01 -3.5648459409e+01 5.9230716546e+01 1.7770000000e+00 0.0000e+00 1.0000e+00
       15  1    3    3    0    0 -3.6006030741e+01 -2.0647689182e+01 -8.1136433458e+01 9.1153935085e+01 1.7770000000e+00 0.0000e+00 1.0000e+00
       22  1    3    3    0    0 -3.0397226252e+00 -5.9931917983e+00 -9.7221543669e+01 9.7453511045e+01 0.0000000000e+00 0.0000e+00 1.0000e+00
<mgrwt>
<rscale>  2 0.12500000E+03</rscale>
<asrwt>0</asrwt>
<pdfrwt beam="1">  1       21 0.24876272E-02 0.12500000E+03</pdfrwt>
<pdfrwt beam="2">  1       21 0.33959158E-01 0.12500000E+03</pdfrwt>
<totfact> 0.70281884E+06</totfact>
</mgrwt>
</event>
<event>
 6      0 +4.1053447e-01 1.25000000e+02 7.54677100e-03 1.12640300e-01
       21 -1    0    0  502  501 +0.0000000000e+00 +0.0000000000e+00 +1.0187735328e+03 1.0187735328e+03 0.0000000000e+00 0.0000e+00 -1.0000e+00
       21 -1    0    0  501  502 -0.0000000000e+00 -0.0000000000e+00 -3.8342672580e+00 3.8342672580e+00 0.0000000000e+00 0.0000e+00 -1.0000e+00
       25  2    1    2    0    0 +0.0000000000e+00 +0.0000000000e+00 +1.0149392655e+03 1.0226078000e+03 1.2500000000e+02 0.0000e+00 0.0000e+00
      -15  1    3    3    0    0 +5.9242923049e+01 -1.1994591301e+01 +3.7826371867e+02 3.8306682543e+02 1.7770000000e+00 0.0000e+00 -1.0000e+00
       15  1    3    3    0    0 -5.9243468214e+01 +1.1994835607e+01 +6.3667197405e+02 6.3953735222e+02 1.7770000000e+00 0.0000e+00 -1.0000e+00
       22  1    3    3    0    0 +5.4516494973e-04 -2.4430592240e-04 +3.5738466271e-03 3.6234334436e-03 0.0000000000e+00 0.0000e+00 -1.0000e+00
<mgrwt>
<rscale>  2 0.12500000E+03</rscale>
<asrwt>0</asrwt>
<pdfrwt beam="1">  1       21 0.14981945E+00 0.12500000E+03</pdfrwt>
<pdfrwt beam="2">  1       21 0.56386354E-03 0.12500000E+03</pdfrwt>
<totfact> 0.20513564E+06</totfact>
</mgrwt>
</event>
<event>
 6      0 +4.1053447e-01 1.25000000e+02 7.54677100e-03 1.12640300e-01
       21 -1    0    0  502  501 +0.0000000000e+00 +0.0000000000e+00 +3.9685827945e+01 3.9685827945e+01 0.0000000000e+00 0.0000e+00 -1.0000e+00
       21 -1    0    0  501  502 -0.0000000000e+00 -0.0000000000e+00 -9.8429343730e+01 9.8429343730e+01 0.0000000000e+00 0.0000e+00 -1.0000e+00
       25  2    1    2    0    0 +0.0000000000e+00 +0.0000000000e+00 -5.8743515784e+01 1.3811517167e+02 1.2500000000e+02 0.0000e+00 0.0000e+00
      -15  1    3    3    0    0 -3.5394415168e+00 +6.2263634168e+01 -3.3477025346e+01 7.0803649207e+01 1.7770000000e+00 0.0000e+00 -1.0000e+00
       15  1    3    3    0    0 +3.5394415119e+00 -6.2263634178e+01 -2.5266490431e+01 6.7311522453e+01 1.7770000000e+00 0.0000e+00 -1.0000e+00
       22  1    3    3    0    0 +4.9398786539e-09 +1.0292003525e-08 -8.8152033142e-09 1.4423437425e-08 0.0000000000e+00 0.0000e+00 -1.0000e+00
<mgrwt>
<rscale>  2 0.12500000E+03</rscale>
<asrwt>0</asrwt>
<pdfrwt beam="1">  1       21 0.58361512E-02 0.12500000E+03</pdfrwt>
<pdfrwt beam="2">  1       21 0.14474903E-01 0.12500000E+03</pdfrwt>
<totfact> 0.86665477E+06</totfact>
</mgrwt>
</event>
<event>
 6      0 +4.1053447e-01 1.25000000e+02 7.54677100e-03 1.12640300e-01
       21 -1    0    0  502  501 +0.0000000000e+00 +0.0000000000e+00 +2.2700733171e+01 2.2700733171e+01 0.0000000000e+00 0.0000e+00 -1.0000e+00
       21 -1    0    0  501  502 -0.0000000000e+00 -0.0000000000e+00 -1.7207594004e+02 1.7207594004e+02 0.0000000000e+00 0.0000e+00 -1.0000e+00
       25  2    1    2    0    0 +0.0000000000e+00 +0.0000000000e+00 -1.4937520687e+02 1.9477667321e+02 1.2500000000e+02 0.0000e+00 0.0000e+00
      -15  1    3    3    0    0 -1.6961573849e+01 +4.4671751391e+01 -1.1975525164e+01 4.9293318935e+01 1.7770000000e+00 0.0000e+00 -1.0000e+00
       15  1    3    3    0    0 +1.6961828772e+01 -4.4672681539e+01 -1.3739944547e+02 1.4548236132e+02 1.7770000000e+00 0.0000e+00 -1.0000e+00
       22  1    3    3    0    0 -2.5492344154e-04 +9.3014752768e-04 -2.3624248580e-04 9.9296067213e-04 0.0000000000e+00 0.0000e+00 1.0000e+00
<mgrwt>
<rscale>  2 0.12500000E+03</rscale>
<asrwt>0</asrwt>
<pdfrwt beam="1">  1       21 0.33383430E-02 0.12500000E+03</pdfrwt>
<pdfrwt beam="2">  1       21 0.25305286E-01 0.12500000E+03</pdfrwt>
<totfact> 0.77587646E+06</totfact>
</mgrwt>
</event>
<event>
 6      0 +4.1053447e-01 1.25000000e+02 7.54677100e-03 1.12640300e-01
       21 -1    0    0  502  501 +0.0000000000e+00 +0.0000000000e+00 +1.8012202665e+02 1.8012202665e+02 0.0000000000e+00 0.0000e+00 1.0000e+00
       21 -1    0    0  501  502 -0.0000000000e+00 -0.0000000000e+00 -2.1686686923e+01 2.1686686923e+01 0.0000000000e+00 0.0000e+00 1.0000e+00
       25  2    1    2    0    0 +0.0000000000e+00 +0.0000000000e+00 +1.5843533973e+02 2.0180871358e+02 1.2500000000e+02 0.0000e+00 0.0000e+00
      -15  1    3    3    0    0 +1.6602382220e+01 -3.4876075366e+01 +1.5120694712e+02 1.5607266998e+02 1.7770000000e+00 0.0000e+00 1.0000e+00
       15  1    3    3    0    0 -1.6525709882e+01 +3.6010707707e+01 +1.2822590649e+00 3.9682137972e+01 1.7770000000e+00 0.0000e+00 1.0000e+00
       22  1    3    3    0    0 -7.6672338188e-02 -1.1346323415e+00 +5.9461335388e+00 6.0539056203e+00 0.0000000000e+00 0.0000e+00 -1.0000e+00
<mgrwt>
<rscale>  2 0.12500000E+03</rscale>
<asrwt>0</asrwt>
<pdfrwt beam="1">  1       21 0.26488533E-01 0.12500000E+03</pdfrwt>
<pdfrwt beam="2">  1       21 0.31892188E-02 0.12500000E+03</pdfrwt>
<totfact> 0.76555800E+06</totfact>
</mgrwt>
</event>
<event>
 6      0 +4.1053447e-01 1.25000000e+02 7.54677100e-03 1.12640300e-01
       21 -1    0    0  502  501 +0.0000000000e+00 +0.0000000000e+00 +1.9838771879e+03 1.9838771879e+03 0.0000000000e+00 0.0000e+00 -1.0000e+00
       21 -1    0    0  501  502 -0.0000000000e+00 -0.0000000000e+00 -1.9689978916e+00 1.9689978916e+00 0.0000000000e+00 0.0000e+00 -1.0000e+00
       25  2    1    2    0    0 +0.0000000000e+00 +0.0000000000e+00 +1.9819081900e+03 1.9858461858e+03 1.2500000000e+02 0.0000e+00 0.0000e+00
      -15  1    3    3    0    0 -5.3073928467e+01 +2.1390059834e+01 +1.3120975291e+03 1.3133459027e+03 1.7770000000e+00 0.0000e+00 1.0000e+00
       15  1    3    3    0    0 +5.4271119582e+01 -2.0889264510e+01 +6.3336389225e+02 6.3603041872e+02 1.7770000000e+00 0.0000e+00 1.0000e+00
       22  1    3    3    0    0 -1.1971911148e+00 -5.0079532359e-01 +3.6446764343e+01 3.6469860071e+01 0.0000000000e+00 0.0000e+00 -1.0000e+00
<mgrwt>
<rscale>  2 0.12500000E+03</rscale>
<asrwt>0</asrwt>
<pdfrwt beam="1">  1       21 0.29174525E+00 0.12500000E+03</pdfrwt>
<pdfrwt beam="2">  1       21 0.28955990E-03 0.12500000E+03</pdfrwt>
<totfact> 0.54972139E+05</totfact>
</mgrwt>
</event>
<event>
 6      0 +4.1053447e-01 1.25000000e+02 7.54677100e-03 1.12640300e-01
       21 -1    0    0  502  501 +0.0000000000e+00 +0.0000000000e+00 +1.5509987383e+02 1.5509987383e+02 0.0000000000e+00 0.0000e+00 1.0000e+00
       21 -1    0    0  501  502 -0.0000000000e+00 -0.0000000000e+00 -2.5185384769e+01 2.5185384769e+01 0.0000000000e+00 0.0000e+00 1.0000e+00
       25  2    1    2    0    0 +0.0000000000e+00 +0.0000000000e+00 +1.2991448906e+02 1.8028525860e+02 1.2500000000e+02 0.0000e+00 0.0000e+00
      -15  1    3    3    0    0 +1.2032454963e+01 -3.1379978919e+01 +1.4091512548e+02 1.4487827086e+02 1.7770000000e+00 0.0000e+00 1.0000e+00
       15  1    3    3    0    0 -1.2032454962e+01 +3.1379978919e+01 -1.1000636427e+01 3.5406987732e+01 1.7770000000e+00 0.0000e+00 1.0000e+00
       22  1    3    3    0    0 -8.7699468149e-10 -3.8941750653e-10 +8.9468699610e-10 1.3119567397e-09 0.0000000000e+00 0.0000e+00 1.0000e+00
<mgrwt>
<rscale>  2 0.12500000E+03</rscale>
<asrwt>0</asrwt>
<pdfrwt beam="1">  1       21 0.22808804E-01 0.12500000E+03</pdfrwt>
<pdfrwt beam="2">  1       21 0.37037331E-02 0.12500000E+03</pdfrwt>
<totfact> 0.79762745E+06</totfact>
</mgrwt>
</event>
<event>
 6      0 +4.1053447e-01 1.25000000e+02 7.54677100e-03 1.12640300e-01
       21 -1    0    0  502  501 +0.0000000000e+00 +0.0000000000e+00 +1.4384243848e+01 1.4384243848e+01 0.0000000000e+00 0.0000e+00 1.0000e+00
       21 -1    0    0  501  502 -0.0000000000e+00 -0.0000000000e+00 -2.7156450079e+02 2.7156450079e+02 0.0000000000e+00 0.0000e+00 1.0000e+00
       25  2    1    2    0    0 +0.0000000000e+00 +0.0000000000e+00 -2.5718025695e+02 2.8594874464e+02 1.2500000000e+02 0.0000e+00 0.0000e+00
      -15  1    3    3    0    0 +3.4998417028e+01 -1.5898094439e+01 -1.5938458101e+01 4.1651299823e+01 1.7770000000e+00 0.0000e+00 1.0000e+00
       15  1    3    3    0    0 -3.0311766748e+01 +1.3379136638e+01 -2.1030053724e+02 2.1290203896e+02 1.7770000000e+00 0.0000e+00 1.0000e+00
       22  1    3    3    0    0 -4.6866502810e+00 +2.5189578015e+00 -3.0941261644e+01 3.1395405896e+01 0.0000000000e+00 0.0000e+00 1.0000e+00
<mgrwt>
<rscale>  2 0.12500000E+03</rscale>
<asrwt>0</asrwt>
<pdfrwt beam="1">  1       21 0.21153302E-02 0.12500000E+03</pdfrwt>
<pdfrwt beam="2">  1       21 0.39935952E-01 0.12500000E+03</pdfrwt>
<totfact> 0.65585763E+06</totfact>
</mgrwt>
</event>
<event>
 6      0 +4.1053447e-01 1.25000000e+02 7.54677100e-03 1.12640300e-01
       21 -1    0    0  502  501 +0.0000000000e+00 +0.0000000000e+00 +9.3950310230e+01 9.3950310230e+01 0.0000000000e+00 0.0000e+00 -1.0000e+00
       21 -1    0    0  501  502 -0.0000000000e+00 -0.0000000000e+00 -4.1577829711e+01 4.1577829711e+01 0.0000000000e+00 0.0000e+00 -1.0000e+00
       25  2    1    2    0    0 +0.0000000000e+00 +0.0000000000e+00 +5.2372480519e+01 1.3552813994e+02 1.2500000000e+02 0.0000e+00 0.0000e+00
      -15  1    3    3    0    0 -4.7555732884e+01 -2.4819353588e+00 +7.0022875095e+01 8.4699873074e+01 1.7770000000e+00 0.0000e+00 1.0000e+00
       15  1    3    3    0    0 +4.7559560065e+01 +2.4826975535e+00 -1.7654703099e+01 5.0822453810e+01 1.7770000000e+00 0.0000e+00 1.0000e+00
       22  1    3    3    0    0 -3.8271814050e-03 -7.6219464170e-04 +4.3085226733e-03 5.8130564943e-03 0.0000000000e+00 0.0000e+00 1.0000e+00
<mgrwt>
<rscale>  2 0.12500000E+03</rscale>
<asrwt>0</asrwt>
<pdfrwt beam="1">  1       21 0.13816222E-01 0.12500000E+03</pdfrwt>
<pdfrwt beam="2">  1       21 0.61143867E-02 0.12500000E+03</pdfrwt>
<totfact> 0.87113662E+06</totfact>
</mgrwt>
</event>
<event>
 6      0 +4.1053447e-01 1.25000000e+02 7.54677100e-03 1.12640300e-01
       21 -1    0    0  502  501 +0.0000000000e+00 +0.0000000000e+00 +1.1085041103e+02 1.1085041103e+02 0.0000000000e+00 0.0000e+00 1.0000e+00
       21 -1    0    0  501  502 -0.0000000000e+00 -0.0000000000e+00 -3.5238931129e+01 3.5238931129e+01 0.0000000000e+00 0.0000e+00 1.0000e+00
       25  2    1    2    0    0 +0.0000000000e+00 +0.0000000000e+00 +7.5611479902e+01 1.4608934216e+02 1.2500000000e+02 0.0000e+00 0.0000e+00
      -15  1    3    3    0    0 -9.1845250852e+00 +4.6977983611e+01 -9.1150030859e+00 4.8759895974e+01 1.7770000000e+00 0.0000e+00 -1.0000e+00
       15  1    3    3    0    0 +9.1845250837e+00 -4.6977983617e+01 +8.4726482984e+01 9.7329446179e+01 1.7770000000e+00 0.0000e+00 -1.0000e+00
       22  1    3    3    0    0 +1.5077933041e-09 +5.6668391377e-09 +4.5455903646e-09 7.4194944723e-09 0.0000000000e+00 0.0000e+00 -1.0000e+00
<mgrwt>
<rscale>  2 0.12500000E+03</rscale>
<asrwt>0</asrwt>
<pdfrwt beam="1">  1       21 0.16301531E-01 0.12500000E+03</pdfrwt>
<pdfrwt beam="2">  1       21 0.51821958E-02 0.12500000E+03</pdfrwt>
<totfact> 0.85287474E+06</totfact>
</mgrwt>
</event>
<event>
 6      0 +4.1053447e-01 1.25000000e+02 7.54677100e-03 1.12640300e-01
       21 -1    0    0  502  501 +0.0000000000e+00 +0.0000000000e+00 +1.0507015201e+02 1.0507015201e+02 0.0000000000e+00 0.0000e+00 -1.0000e+00
       21 -1    0    0  501  502 -0.0000000000e+00 -0.0000000000e+00 -3.7177542104e+01 3.7177542104e+01 0.0000000000e+00 0.0000e+00 -1.0000e+00
       25  2    1    2    0    0 +0.0000000000e+00 +0.0000000000e+00 +6.7892609902e+01 1.4224769411e+02 1.2500000000e+02 0.0000e+00 0.0000e+00
      -15  1    3    3    0    0 +5.0954233807e+01 +7.1577421894e+00 +7.4268847855e+01 9.0369169006e+01 1.7770000000e+00 0.0000e+00 1.0000e+00
       15  1    3    3    0    0 -5.0954195360e+01 -7.1577356899e+00 -6.3762354908e+00 5.1878486032e+01 1.7770000000e+00 0.0000e+00 1.0000e+00
       22  1    3    3    0    0 -3.8447482287e-05 -6.4995844946e-06 -2.4627179422e-06 3.9070685590e-05 0.0000000000e+00 0.0000e+00 -1.0000e+00
<mgrwt>
<rscale>  2 0.12500000E+03</rscale>
<asrwt>0</asrwt>
<pdfrwt beam="1">  1       21 0.15451493E-01 0.12500000E+03</pdfrwt>
<pdfrwt beam="2">  1       21 0.54672856E-02 0.12500000E+03</pdfrwt>
<totfact> 0.85950865E+06</totfact>
</mgrwt>
</event>
<event>
 6      0 +4.1053447e-01 1.25000000e+02 7.54677100e-03 1.12640300e-01
       21 -1    0    0  502  501 +0.0000000000e+00 +0.0000000000e+00 +4.4308332874e+00 4.4308332874e+00 0.0000000000e+00 0.0000e+00 -1.0000e+00
       21 -1    0    0  501  502 -0.0000000000e+00 -0.0000000000e+00 -8.8160617803e+02 8.8160617803e+02 0.0000000000e+00 0.0000e+00 -1.0000e+00
       25  2    1    2    0    0 +0.0000000000e+00 +0.0000000000e+00 -8.7717534474e+02 8.8603701132e+02 1.2500000000e+02 0.0000e+00 0.0000e+00
      -15  1    3    3    0    0 +3.1796531069e+01 +7.1766976770e+00 -6.1004116441e+01 6.9189481348e+01 1.7770000000e+00 0.0000e+00 -1.0000e+00
       15  1    3    3    0    0 -3.1372125559e+01 -7.6578241361e+00 -8.0941900120e+02 8.1006489231e+02 1.7770000000e+00 0.0000e+00 -1.0000e+00
       22  1    3    3    0    0 -4.2440551037e-01 +4.8112645909e-01 -6.7522268440e+00 6.7826373971e+00 0.0000000000e+00 0.0000e+00 -1.0000e+00
<mgrwt>
<rscale>  2 0.12500000E+03</rscale>
<asrwt>0</asrwt>
<pdfrwt beam="1">  1       21 0.65159319E-03 0.12500000E+03</pdfrwt>
<pdfrwt beam="2">  1       21 0.12964796E+00 0.12500000E+03</pdfrwt>
<totfact> 0.24927949E+06</totfact>
</mgrwt>
</event>
<event>
 6      0 +4.1053447e-01 1.25000000e+02 7.54677100e-03 1.12640300e-01
       21 -1    0    0  502  501 +0.0000000000e+00 +0.0000000000e+00 +1.3022484015e+02 1.3022484015e+02 0.0000000000e+00 0.0000e+00 -1.0000e+00
       21 -1    0    0  501  502 -0.0000000000e+00 -0.0000000000e+00 -2.9996197311e+01 2.9996197311e+01 0.0000000000e+00 0.0000e+00 -1.0000e+00
       25  2    1    2    0    0 +0.0000000000e+00 +0.0000000000e+00 +1.0022864284e+02 1.6022103746e+02 1.2500000000e+02 0.0000e+00 0.0000e+00
      -15  1    3    3    0    0 +1.3112803228e+01 +5.5202073692e+01 +8.3633519246e+01 1.0107886930e+02 1.7770000000e+00 0.0000e+00 1.0000e+00
       15  1    3    3    0    0 -1.3112772429e+01 -5.5202162601e+01 +1.6594963636e+01 5.9141982583e+01 1.7770000000e+00 0.0000e+00 1.0000e+00
       22  1    3    3    0    0 -3.0798933767e-05 +8.8909042403e-05 +1.5996064222e-04 1.8558232460e-04 0.0000000000e+00 0.0000e+00 -1.0000e+00
<mgrwt>
<rscale>  2 0.12500000E+03</rscale>
<asrwt>0</asrwt>
<pdfrwt beam="1">  1       21 0.19150712E-01 0.12500000E+03</pdfrwt>
<pdfrwt beam="2">  1       21 0.44112055E-02 0.12500000E+03</pdfrwt>
<totfact> 0.82942677E+06</totfact>
</mgrwt>
</event>
<event>
 6      0 +4.1053447e-01 1.25000000e+02 7.54677100e-03 1.12640300e-01
       21 -1    0    0  502  501 +0.0000000000e+00 +0.0000000000e+00 +3.5822159966e+02 3.5822159966e+02 0.0000000000e+00 0.0000e+00 -1.0000e+00
       21 -1    0    0  501  502 -0.0000000000e+00 -0.0000000000e+00 -1.0904562996e+01 1.0904562996e+01 0.0000000000e+00 0.0000e+00 -1.0000e+00
       25  2    1    2    0    0 +0.0000000000e+00 +0.0000000000e+00 +3.4731703667e+02 3.6912616266e+02 1.2500000000e+02 0.0000e+00 0.0000e+00
      -15  1    3    3    0    0 +1.6751253474e+01 -6.0186799648e+01 +1.7422404044e+02 1.8509518995e+02 1.7770000000e+00 0.0000e+00 -1.0000e+00
       15  1    3    3    0    0 -1.6751152450e+01 +6.0186405607e+01 +1.7309202244e+02 1.8402991737e+02 1.7770000000e+00 0.0000e+00 -1.0000e+00
       22  1    3    3    0    0 -1.0102336981e-04 +3.9404139438e-04 +9.7380374012e-04 1.0553521052e-03 0.0000000000e+00 0.0000e+00 1.0000e+00
<mgrwt>
<rscale>  2 0.12500000E+03</rscale>
<asrwt>0</asrwt>
<pdfrwt beam="1">  1       21 0.52679639E-01 0.12500000E+03</pdfrwt>
<pdfrwt beam="2">  1       21 0.16036124E-02 0.12500000E+03</pdfrwt>
<totfact> 0.56606328E+06</totfact>
</mgrwt>
</event>
<event>
 6      0 +4.1053447e-01 1.25000000e+02 7.54677100e-03 1.12640300e-01
       21 -1    0    0  502  501 +0.0000000000e+00 +0.0000000000e+00 +2.3394180136e+02 2.3394180136e+02 0.0000000000e+00 0.0000e+00 -1.0000e+00
       21 -1    0    0  501  502 -0.0000000000e+00 -0.0000000000e+00 -1.6697528946e+01 1.6697528946e+01 0.0000000000e+00 0.0000e+00 -1.0000e+00
       25  2    1    2    0    0 +0.0000000000e+00 +0.0000000000e+00 +2.1724427242e+02 2.5063933031e+02 1.2500000000e+02 0.0000e+00 0.0000e+00
      -15  1    3    3    0    0 -4.4598007775e+01 +2.8728705242e+01 +4.2460319396e+01 6.7973209830e+01 1.7770000000e+00 0.0000e+00 1.0000e+00
       15  1    3    3    0    0 +4.4598014827e+01 -2.8728709457e+01 +1.7478394900e+02 1.8266611134e+02 1.7770000000e+00 0.0000e+00 1.0000e+00
       22  1    3    3    0    0 -7.0512824485e-06 +4.2158622148e-06 +4.0291650661e-06 9.1503141760e-06 0.0000000000e+00 0.0000e+00 1.0000e+00
<mgrwt>
<rscale>  2 0.12500000E+03</rscale>
<asrwt>0</asrwt>
<pdfrwt beam="1">  1       21 0.34403204E-01 0.12500000E+03</pdfrwt>
<pdfrwt beam="2">  1       21 0.24555191E-02 0.12500000E+03</pdfrwt>
<totfact> 0.69921037E+06</totfact>
</mgrwt>
</event>
<event>
 6      0 +4.1053447e-01 1.25000000e+02 7.54677100e-03 1.12640300e-01
       21 -1    0    0  502  501 +0.0000000000e+00 +0.0000000000e+00 +6.6439646019e+02 6.6439646019e+02 0.0000000000e+00 0.0000e+00 1.0000e+00
       21 -1    0    0  501  502 -0.0000000000e+00 -0.0000000000e+00 -5.8793961649e+00 5.8793961649e+00 0.0000000000e+00 0.0000e+00 1.0000e+00
       25  2    1    2    0    0 +0.0000000000e+00 +0.0000000000e+00 +6.5851706402e+02 6.7027585635e+02 1.2500000000e+02 0.0000e+00 0.0000e+00
      -15  1    3    3    0    0 -4.6781952612e+01 -3.1569679967e+01 +1.8558575790e+02 1.9398563619e+02 1.7770000000e+00 0.0000e+00 1.0000e+00
       15  1    3    3    0    0 +4.6781952612e+01 +3.1569679966e+01 +4.7293130609e+02 4.7629022013e+02 1.7770000000e+00 0.0000e+00 1.0000e+00
       22  1    3    3    0    0 +6.9268953097e-11 +1.3641678884e-09 +1.6981490001e-08 1.7036336310e-08 0.0000000000e+00 0.0000e+00 1.0000e+00
<mgrwt>
<rscale>  2 0.12500000E+03</rscale>
<asrwt>0</asrwt>
<pdfrwt beam="1">  1       21 0.97705310E-01 0.12500000E+03</pdfrwt>
<pdfrwt beam="2">  1       21 0.86461754E-03 0.12500000E+03</pdfrwt>
<totfact> 0.34460821E+06</totfact>
</mgrwt>
</event>
<event>
 6      0 +4.1053447e-01 1.25000000e+02 7.54677100e-03 1.12640300e-01
       21 -1    0    0  502  501 +0.0000000000e+00 +0.0000000000e+00 +9.2356265256e+00 9.2356265256e+00 0.0000000000e+00 0.0000e+00 1.0000e+00
       21 -1    0    0  501  502 -0.0000000000e+00 -0.0000000000e+00 -4.2295452173e+02 4.2295452173e+02 0.0000000000e+00 0.0000e+00 1.0000e+00
       25  2    1    2    0    0 +0.0000000000e+00 +0.0000000000e+00 -4.1371889520e+02 4.3219014825e+02 1.2500000000e+02 0.0000e+00 0.0000e+00
      -15  1    3    3    0    0 +2.5421198566e+01 -1.1834612721e+01 -1.3848370410e+01 3.1324598748e+01 1.7770000000e+00 0.0000e+00 -1.0000e+00
       15  1    3    3    0    0 -2.5432267672e+01 +1.1864425957e+01 -3.9980550467e+02 4.0079316877e+02 1.7770000000e+00 0.0000e+00 -1.0000e+00
       22  1    3    3    0    0 +1.1069106619e-02 -2.9813236148e-02 -6.5020131631e-02 7.2380741142e-02 0.0000000000e+00 0.0000e+00 -1.0000e+00
<mgrwt>
<rscale>  2 0.12500000E+03</rscale>
<asrwt>0</asrwt>
<pdfrwt beam="1">  1       21 0.13581807E-02 0.12500000E+03</pdfrwt>
<pdfrwt beam="2">  1       21 0.62199179E-01 0.12500000E+03</pdfrwt>
<totfact> 0.50783298E+06</totfact>
</mgrwt>
</event>
<event>
 6      0 +4.1053447e-01 1.25000000e+02 7.54677100e-03 1.12640300e-01
       21 -1    0    0  502  501 +0.0000000000e+00 +0.0000000000e+00 +2.3674055272e+01 2.3674055272e+01 0.0000000000e+00 0.0000e+00 1.0000e+00
       21 -1    0    0  501  502 -0.0000000000e+00 -0.0000000000e+00 -1.6500130439e+02 1.6500130439e+02 0.0000000000e+00 0.0000e+00 1.0000e+00
       25  2    1    2    0    0 +0.0000000000e+00 +0.0000000000e+00 -1.4132724911e+02 1.8867535966e+02 1.2500000000e+02 0.0000e+00 0.0000e+00
      -15  1    3    3    0    0 +1.6490533792e+01 -5.9113580255e+01 -8.8313906441e+01 1.0755862065e+02 1.7770000000e+00 0.0000e+00 1.0000e+00
       15  1    3    3    0    0 -1.6490533858e+01 +5.9113580408e+01 -5.3013342424e+01 8.1116738713e+01 1.7770000000e+00 0.0000e+00 1.0000e+00
       22  1    3    3    0    0 +6.5805539997e-08 -1.5363733540e-07 -2.3787251890e-07 2.9072002884e-07 0.0000000000e+00 0.0000e+00 1.0000e+00
<mgrwt>
<rscale>  2 0.12500000E+03</rscale>
<asrwt>0</asrwt>
<pdfrwt beam="1">  1       21 0.34814788E-02 0.12500000E+03</pdfrwt>
<pdfrwt beam="2">  1       21 0.24264897E-01 0.12500000E+03</pdfrwt>
<totfact> 0.78495499E+06</totfact>
</mgrwt>
</event>
<event>
 6      0 +4.1053447e-01 1.25000000e+02 7.54677100e-03 1.12640300e-01
       21 -1    0    0  502  501 +0.0000000000e+00 +0.0000000000e+00 +7.8002258636e+00 7.8002258636e+00 0.0000000000e+00 0.0000e+00 1.0000e+00
       21 -1    0    0  501  502 -0.0000000000e+00 -0.0000000000e+00 -5.0078678083e+02 5.0078678083e+02 0.0000000000e+00 0.0000e+00 1.0000e+00
       25  2    1    2    0    0 +0.0000000000e+00 +0.0000000000e+00 -4.9298655497e+02 5.0858700670e+02 1.2500000000e+02 0.0000e+00 0.0000e+00
      -15  1    3    3    0    0 +5.2822003392e+01 -2.8679284737e+01 -1.7742948288e+02 1.8734205225e+02 1.7770000000e+00 0.0000e+00 1.0000e+00
       15  1    3    3    0    0 -5.1610821005e+01 +2.8269920501e+01 -3.1021051855e+02 3.1574766634e+02 1.7770000000e+00 0.0000e+00 1.0000e+00
       22  1    3    3    0    0 -1.2111823869e+00 +4.0936423560e-01 -5.3465534940e+00 5.4972880692e+00 0.0000000000e+00 0.0000e+00 -1.0000e+00
<mgrwt>
<rscale>  2 0.12500000E+03</rscale>
<asrwt>0</asrwt>
<pdfrwt beam="1">  1       21 0.11470919E-02 0.12500000E+03</pdfrwt>
<pdfrwt beam="2">  1       21 0.73645126E-01 0.12500000E+03</pdfrwt>
<totfact> 0.44693394E+06</totfact>
</mgrwt>
</event>
<event>
 6      0 +4.1053447e-01 1.25000000e+02 7.54677100e-03 1.12640300e-01
       21 -1    0    0  502  501 +0.0000000000e+00 +0.0000000000e+00 +1.3488413982e+02 1.3488413982e+02 0.0000000000e+00 0.0000e+00 -1.0000e+00
       21 -1    0    0  501  502 -0.0000000000e+00 -0.0000000000e+00 -2.8960039372e+01 2.8960039372e+01 0.0000000000e+00 0.0000e+00 -1.0000e+00
       25  2    1    2    0    0 +0.0000000000e+00 +0.0000000000e+00 +1.0592410045e+02 1.6384417920e+02 1.2500000000e+02 0.0000e+00 0.0000e+00
      -15  1    3    3    0    0 +4.4433008167e+01 -3.0232071428e+01 +1.2635996450e+01 5.5236731374e+01 1.7770000000e+00 0.0000e+00 1.0000e+00
       15  1    3    3    0    0 -4.4973858516e+01 +3.0632871197e+01 +9.3188183424e+01 1.0792690122e+02 1.7770000000e+00 0.0000e+00 1.0000e+00
       22  1    3    3    0    0 +5.4085034850e-01 -4.0079976851e-01 +9.9920569322e-02 6.8054659950e-01 0.0000000000e+00 0.0000e+00 -1.0000e+00
<mgrwt>
<rscale>  2 0.12500000E+03</rscale>
<asrwt>0</asrwt>
<pdfrwt beam="1">  1       21 0.19835903E-01 0.12500000E+03</pdfrwt>
<pdfrwt beam="2">  1       21 0.42588294E-02 0.12500000E+03</pdfrwt>
<totfact> 0.82353743E+06</totfact>
</mgrwt>
</event>
<event>
 6      0 +4.1053447e-01 1.25000000e+02 7.54677100e-03 1.12640300e-01
       21 -1    0    0  502  501 +0.0000000000e+00 +0.0000000000e+00 +4.5325401230e+02 4.5325401230e+02 0.0000000000e+00 0.0000e+00 -1.0000e+00
       21 -1    0    0  501  502 -0.0000000000e+00 -0.0000000000e+00 -8.6182358986e+00 8.6182358986e+00 0.0000000000e+00 0.0000e+00 -1.0000e+00
       25  2    1    2    0    0 +0.0000000000e+00 +0.0000000000e+00 +4.4463577640e+02 4.6187224820e+02 1.2500000000e+02 0.0000e+00 0.0000e+00
      -15  1    3    3    0    0 +3.2760521649e+01 +4.8049515499e-01 +4.1803579239e+02 4.1932155216e+02 1.7770000000e+00 0.0000e+00 1.0000e+00
       15  1    3    3    0    0 -3.2795978692e+01 -4.8980139817e-01 +2.5849109393e+01 4.1798927129e+01 1.7770000000e+00 0.0000e+00 1.0000e+00
       22  1    3    3    0    0 +3.5457042763e-02 +9.3062431818e-03 +7.5087458151e-01 7.5176887752e-01 0.0000000000e+00 0.0000e+00 -1.0000e+00
<mgrwt>
<rscale>  2 0.12500000E+03</rscale>
<asrwt>0</asrwt>
<pdfrwt beam="1">  1       21 0.66654986E-01 0.12500000E+03</pdfrwt>
<pdfrwt beam="2">  1       21 0.12673879E-02 0.12500000E+03</pdfrwt>
<totfact> 0.48299589E+06</totfact>
</mgrwt>
</event>
<event>
 6      0 +4.1053447e-01 1.25000000e+02 7.54677100e-03 1.12640300e-01
       21 -1    0    0  502  501 +0.0000000000e+00 +0.0000000000e+00 +2.5424537514e+01 2.5424537514e+01 0.0000000000e+00 0.0000e+00 -1.0000e+00
       21 -1    0    0  501  502 -0.0000000000e+00 -0.0000000000e+00 -1.5364094618e+02 1.5364094618e+02 0.0000000000e+00 0.0000e+00 -1.0000e+00
       25  2    1    2    0    0 +0.0000000000e+00 +0.0000000000e+00 -1.2821640867e+02 1.7906548370e+02 1.2500000000e+02 0.0000e+00 0.0000e+00
      -15  1    3    3    0    0 +2.0935889534e+01 -5.8588052425e+01 -6.4312332819e+01 8.9499191276e+01 1.7770000000e+00 0.0000e+00 -1.0000e+00
       15  1    3    3    0    0 -2.1154059863e+01 +5.8654062225e+01 -6.3949814623e+01 8.9333810976e+01 1.7770000000e+00 0.0000e+00 -1.0000e+00
       22  1    3    3    0    0 +2.1817032980e-01 -6.6009800341e-02 +4.5738774554e-02 2.3248144452e-01 0.0000000000e+00 0.0000e+00 -1.0000e+00
<mgrwt>
<rscale>  2 0.12500000E+03</rscale>
<asrwt>0</asrwt>
<pdfrwt beam="1">  1       21 0.37389026E-02 0.12500000E+03</pdfrwt>
<pdfrwt beam="2">  1       21 0.22594257E-01 0.12500000E+03</pdfrwt>
<totfact> 0.79949640E+06</totfact>
</mgrwt>
</event>
<event>
 6      0 +4.1053447e-01 1.25000000e+02 7.54677100e-03 1.12640300e-01
       21 -1    0    0  502  501 +0.0000000000e+00 +0.0000000000e+00 +7.1659855617e+01 7.1659855617e+01 0.0000000000e+00 0.0000e+00 -1.0000e+00
       21 -1    0    0  501  502 -0.0000000000e+00 -0.0000000000e+00 -5.4510994564e+01 5.4510994564e+01 0.0000000000e+00 0.0000e+00 -1.0000e+00
       25  2    1    2    0    0 +0.0000000000e+00 +0.0000000000e+00 +1.7148861053e+01 1.2617085018e+02 1.2500000000e+02 0.0000e+00 0.0000e+00
      -15  1    3    3    0    0 -5.4843311944e+00 -2.2008394816e+01 -5.0178969661e+01 5.5095680922e+01 1.7770000000e+00 0.0000e+00 1.0000e+00
       15  1    3    3    0    0 +5.4833465206e+00 +2.2008732452e+01 +6.7331490832e+01 7.1071363993e+01 1.7770000000e+00 0.0000e+00 1.0000e+00
       22  1    3    3    0    0 +9.8467381391e-04 -3.3763576317e-04 -3.6601183339e-03 3.8052656473e-03 0.0000000000e+00 0.0000e+00 1.0000e+00
<mgrwt>
<rscale>  2 0.12500000E+03</rscale>
<asrwt>0</asrwt>
<pdfrwt beam="1">  1       21 0.10538214E-01 0.12500000E+03</pdfrwt>
<pdfrwt beam="2">  1       21 0.80163227E-02 0.12500000E+03</pdfrwt>
<totfact> 0.88780966E+06</totfact>
</mgrwt>
</event>
<event>
 6      0 +4.1053447e-01 1.25000000e+02 7.54677100e-03 1.12640300e-01
       21 -1    0    0  502  501 +0.0000000000e+00 +0.0000000000e+00 +2.3925666945e+01 2.3925666945e+01 0.0000000000e+00 0.0000e+00 1.0000e+00
       21 -1    0    0  501  502 -0.0000000000e+00 -0.0000000000e+00 -1.6326608613e+02 1.6326608613e+02 0.0000000000e+00 0.0000e+00 1.0000e+00
       25  2    1    2    0    0 +0.0000000000e+00 +0.0000000000e+00 -1.3934041918e+02 1.8719175307e+02 1.2500000000e+02 0.0000e+00 0.0000e+00
      -15  1    3    3    0    0 +2.9978178688e+00 +3.2703778751e+01 -1.4925915165e+02 1.5283970733e+02 1.7770000000e+00 0.0000e+00 1.0000e+00
       15  1    3    3    0    0 -2.9978172437e+00 -3.2703777339e+01 +9.9187317341e+00 3.4352044023e+01 1.7770000000e+00 0.0000e+00 1.0000e+00
       22  1    3    3    0    0 -6.2507622345e-07 -1.4119056458e-06 +7.3995319013e-07 1.7122291205e-06 0.0000000000e+00 0.0000e+00 -1.0000e+00
<mgrwt>
<rscale>  2 0.12500000E+03</rscale>
<asrwt>0</asrwt>
<pdfrwt beam="1">  1       21 0.35184805E-02 0.12500000E+03</pdfrwt>
<pdfrwt beam="2">  1       21 0.24009718E-01 0.12500000E+03</pdfrwt>
<totfact> 0.78717688E+06</totfact>
</mgrwt>
</event>
<event>
 6      0 +4.1053447e-01 1.25000000e+02 7.54677100e-03 1.12640300e-01
       21 -1    0    0  502  501 +0.0000000000e+00 +0.0000000000e+00 +4.8096255757e+01 4.8096255757e+01 0.0000000000e+00 0.0000e+00 1.0000e+00
       21 -1    0    0  501  502 -0.0000000000e+00 -0.0000000000e+00 -8.1217340904e+01 8.1217340904e+01 0.0000000000e+00 0.0000e+00 1.0000e+00
       25  2    1    2    0    0 +0.0000000000e+00 +0.0000000000e+00 -3.3121085148e+01 1.2931359666e+02 1.2500000000e+02 0.0000e+00 0.0000e+00
      -15  1    3    3    0    0 +8.4203331056e+00 +6.1718420496e+01 -1.1665626313e+01 6.3398028395e+01 1.7770000000e+00 0.0000e+00 -1.0000e+00
       15  1    3    3    0    0 -8.4210455530e+00 -6.1723368097e+01 -2.1455882987e+01 6.5910551669e+01 1.7770000000e+00 0.0000e+00 -1.0000e+00
       22  1    3    3    0    0 +7.1244737784e-04 +4.9476015349e-03 +4.2415250568e-04 5.0165972096e-03 0.0000000000e+00 0.0000e+00 1.0000e+00
<mgrwt>
<rscale>  2 0.12500000E+03</rscale>
<asrwt>0</asrwt>
<pdfrwt beam="1">  1       21 0.70729789E-02 0.12500000E+03</pdfrwt>
<pdfrwt beam="2">  1       21 0.11943726E-01 0.12500000E+03</pdfrwt>
<totfact> 0.88222722E+06</totfact>
</mgrwt>
</event>
<event>
 6      0 +4.1053447e-01 1.25000000e+02 7.54677100e-03 1.12640300e-01
       21 -1    0    0  502  501 +0.0000000000e+00 +0.0000000000e+00 +1.4770130691e+01 1.4770130691e+01 0.0000000000e+00 0.0000e+00 -1.0000e+00
       21 -1    0    0  501  502 -0.0000000000e+00 -0.0000000000e+00 -2.6446956237e+02 2.6446956237e+02 0.0000000000e+00 0.0000e+00 -1.0000e+00
       25  2    1    2    0    0 +0.0000000000e+00 +0.0000000000e+00 -2.4969943168e+02 2.7923969306e+02 1.2500000000e+02 0.0000e+00 0.0000e+00
      -15  1    3    3    0    0 +5.9366072192e+01 +9.9355420945e+00 -1.6223338325e+02 1.7304876161e+02 1.7770000000e+00 0.0000e+00 1.0000e+00
       15  1    3    3    0    0 -5.9366075684e+01 -9.9355418116e+00 -8.7466033895e+01 1.0619091650e+02 1.7770000000e+00 0.0000e+00 1.0000e+00
       22  1    3    3    0    0 +3.4918978600e-06 -2.8288180451e-07 -1.4544669737e-05 1.4960641381e-05 0.0000000000e+00 0.0000e+00 -1.0000e+00
<mgrwt>
<rscale>  2 0.12500000E+03</rscale>
<asrwt>0</asrwt>
<pdfrwt beam="1">  1       21 0.21720781E-02 0.12500000E+03</pdfrwt>
<pdfrwt beam="2">  1       21 0.38892582E-01 0.12500000E+03</pdfrwt>
<totfact> 0.66382181E+06</totfact>
</mgrwt>
</event>
<event>
 6      0 +4.1053447e-01 1.25000000e+02 7.54677100e-03 1.12640300e-01
       21 -1    0    0  502  501 +0.0000000000e+00 +0.0000000000e+00 +4.9710616102e+02 4.9710616102e+02 0.0000000000e+00 0.0000e+00 1.0000e+00
       21 -1    0    0  501  502 -0.0000000000e+00 -0.0000000000e+00 -7.8579794546e+00 7.8579794546e+00 0.0000000000e+00 0.0000e+00 1.0000e+00
       25  2    1    2    0    0 +0.0000000000e+00 +0.0000000000e+00 +4.8924818156e+02 5.0496414047e+02 1.2500000000e+02 0.0000e+00 0.0000e+00
      -15  1    3    3    0    0 -5.3201248750e+01 +3.2633303483e+01 +2.5171100693e+02 2.5933934161e+02 1.7770000000e+00 0.0000e+00 1.0000e+00
       15  1    3    3    0    0 +5.3233341506e+01 -3.2650918511e+01 +2.3741314962e+02 2.4549548360e+02 1.7770000000e+00 0.0000e+00 1.0000e+00
       22  1    3    3    0    0 -3.2092755849e-02 +1.7615028001e-02 +1.2402499302e-01 1.2931524691e-01 0.0000000000e+00 0.0000e+00 1.0000e+00
<mgrwt>
<rscale>  2 0.12500000E+03</rscale>
<asrwt>0</asrwt>
<pdfrwt beam="1">  1       21 0.73103825E-01 0.12500000E+03</pdfrwt>
<pdfrwt beam="2">  1       21 0.11555856E-02 0.12500000E+03</pdfrwt>
<totfact> 0.44958732E+06</totfact>
</mgrwt>
</event>
<event>
 6      0 +4.1053447e-01 1.25000000e+02 7.54677100e-03 1.12640300e-01
       21 -1    0    0  502  501 +0.0000000000e+00 +0.0000000000e+00 +2.8206960818e+01 2.8206960818e+01 0.0000000000e+00 0.0000e+00 -1.0000e+00
       21 -1    0    0  501  502 -0.0000000000e+00 -0.0000000000e+00 -1.3848532017e+02 1.3848532017e+02 0.0000000000e+00 0.0000e+00 -1.0000e+00
       25  2    1    2    0    0 +0.0000000000e+00 +0.0000000000e+00 -1.1027835936e+02 1.6669228099e+02 1.2500000000e+02 0.0000e+00 0.0000e+00
      -15  1    3    3    0    0 -4.7342197486e+01 +7.9909231313e-01 -1.0949067000e+02 1.1930333925e+02 1.7770000000e+00 0.0000e+00 1.0000e+00
       15  1    3    3    0    0 +4.7341783407e+01 -7.9926886533e-01 -7.8796241846e-01 4.7388415257e+01 1.7770000000e+00 0.0000e+00 1.0000e+00
       22  1    3    3    0    0 +4.1407827463e-04 +1.7655219529e-04 +2.7305160874e-04 5.2648710926e-04 0.0000000000e+00 0.0000e+00 -1.0000e+00
<mgrwt>
<rscale>  2 0.12500000E+03</rscale>
<asrwt>0</asrwt>
<pdfrwt beam="1">  1       21 0.41480825E-02 0.12500000E+03</pdfrwt>
<pdfrwt beam="2">  1       21 0.20365488E-01 0.12500000E+03</pdfrwt>
<totfact> 0.81892868E+06</totfact>
</mgrwt>
</event>
<event>
 6      0 +4.1053447e-01 1.25000000e+02 7.54677100e-03 1.12640300e-01
       21 -1    0    0  502  501 +0.0000000000e+00 +0.0000000000e+00 +1.3156717159e+01 1.3156717159e+01 0.0000000000e+00 0.0000e+00 -1.0000e+00
       21 -1    0    0  501  502 -0.0000000000e+00 -0.0000000000e+00 -2.9690157148e+02 2.9690157148e+02 0.0000000000e+00 0.0000e+00 -1.0000e+00
       25  2    1    2    0    0 +0.0000000000e+00 +0.0000000000e+00 -2.8374485432e+02 3.1005828864e+02 1.2500000000e+02 0.0000e+00 0.0000e+00
      -15  1    3    3    0    0 -5.3605818688e+01 +1.7440156160e+01 -7.5067736303e+01 9.3893906122e+01 1.7770000000e+00 0.0000e+00 1.0000e+00
       15  1    3    3    0    0 +5.3605554866e+01 -1.7440066845e+01 -2.0867616701e+02 2.1616339156e+02 1.7770000000e+00 0.0000e+00 1.0000e+00
       22  1    3    3    0    0 +2.6382232306e-04 -8.9314939804e-05 -9.5099239674e-04 9.9094193335e-04 0.0000000000e+00 0.0000e+00 1.0000e+00
<mgrwt>
<rscale>  2 0.12500000E+03</rscale>
<asrwt>0</asrwt>
<pdfrwt beam="1">  1       21 0.19348113E-02 0.12500000E+03</pdfrwt>
<pdfrwt beam="2">  1       21 0.43661997E-01 0.12500000E+03</pdfrwt>
<totfact> 0.62808251E+06</totfact>
</mgrwt>
</event>
<event>
 6      0 +4.1053447e-01 1.25000000e+02 7.54677100e-03 1.12640300e-01
       21 -1    0    0  502  501 +0.0000000000e+00 +0.0000000000e+00 +6.1067682841e+01 6.1067682841e+01 0.0000000000e+00 0.0000e+00 1.0000e+00
       21 -1    0    0  501  502 -0.0000000000e+00 -0.0000000000e+00 -6.3965911564e+01 6.3965911564e+01 0.0000000000e+00 0.0000e+00 1.0000e+00
       25  2    1    2    0    0 +0.0000000000e+00 +0.0000000000e+00 -2.8982287228e+00 1.2503359440e+02 1.2500000000e+02 0.0000e+00 0.0000e+00
      -15  1    3    3    0    0 +2.5552949705e+01 +5.5445515779e+01 +1.1818454157e+01 6.2209260133e+01 1.7770000000e+00 0.0000e+00 -1.0000e+00
       15  1    3    3    0    0 -2.5552950014e+01 -5.5445515430e+01 -1.4716682748e+01 6.2824333787e+01 1.7770000000e+00 0.0000e+00 -1.0000e+00
       22  1    3    3    0    0 +3.0880103505e-07 -3.4889895918e-07 -1.3251472055e-07 4.8440552652e-07 0.0000000000e+00 0.0000e+00 -1.0000e+00
<mgrwt>
<rscale>  2 0.12500000E+03</rscale>
<asrwt>0</asrwt>
<pdfrwt beam="1">  1       21 0.89805416E-02 0.12500000E+03</pdfrwt>
<pdfrwt beam="2">  1       21 0.94067516E-02 0.12500000E+03</pdfrwt>
<totfact> 0.88995143E+06</totfact>
</mgrwt>
</event>
<event>
 6      0 +4.1053447e-01 1.25000000e+02 7.54677100e-03 1.12640300e-01
       21 -1    0    0  502  501 +0.0000000000e+00 +0.0000000000e+00 +1.1791000646e+01 1.1791000646e+01 0.0000000000e+00 0.0000e+00 1.0000e+00
       21 -1    0    0  501  502 -0.0000000000e+00 -0.0000000000e+00 -3.3129079689e+02 3.3129079689e+02 0.0000000000e+00 0.0000e+00 1.0000e+00
       25  2    1    2    0    0 +0.0000000000e+00 +0.0000000000e+00 -3.1949979625e+02 3.4308179754e+02 1.2500000000e+02 0.0000e+00 0.0000e+00
      -15  1    3    3    0    0 -9.4576374105e+00 +1.5934780836e+01 +4.0056700202e+00 1.9041199199e+01 1.7770000000e+00 0.0000e+00 -1.0000e+00
       15  1    3    3    0    0 +9.4575535456e+00 -1.5934730837e+01 -3.2350436051e+02 3.2403948828e+02 1.7770000000e+00 0.0000e+00 -1.0000e+00
       22  1    3    3    0    0 +8.3864864390e-05 -4.9998820994e-05 -1.1057668383e-03 1.1100691412e-03 0.0000000000e+00 0.0000e+00 -1.0000e+00
<mgrwt>
<rscale>  2 0.12500000E+03</rscale>
<asrwt>0</asrwt>
<pdfrwt beam="1">  1       21 0.17339708E-02 0.12500000E+03</pdfrwt>
<pdfrwt beam="2">  1       21 0.48719232E-01 0.12500000E+03</pdfrwt>
<totfact> 0.59242987E+06</totfact>
</mgrwt>
</event>
<event>
 6      0 +4.1053447e-01 1.25000000e+02 7.54677100e-03 1.12640300e-01
       21 -1    0    0  502  501 +0.0000000000e+00 +0.0000000000e+00 +5.6630801953e+01 5.6630801953e+01 0.0000000000e+00 0.0000e+00 1.0000e+00
       21 -1    0    0  501  502 -0.0000000000e+00 -0.0000000000e+00 -6.8977479839e+01 6.8977479839e+01 0.0000000000e+00 0.0000e+00 1.0000e+00
       25  2    1    2    0    0 +0.0000000000e+00 +0.0000000000e+00 -1.2346677887e+01 1.2560828179e+02 1.2500000000e+02 0.0000e+00 0.0000e+00
      -15  1    3    3    0    0 -2.1980954768e+01 +2.5047419866e+01 +4.6928462970e+01 5.7584494269e+01 1.7770000000e+00 0.0000e+00 1.0000e+00
       15  1    3    3    0    0 +2.1980954598e+01 -2.5047419676e+01 -5.9275140607e+01 6.8023787167e+01 1.7770000000e+00 0.0000e+00 1.0000e+00
       22  1    3    3    0    0 +1.6955024269e-07 -1.8923699373e-07 -2.5093252023e-07 3.5710650274e-07 0.0000000000e+00 0.0000e+00 1.0000e+00
<mgrwt>
<rscale>  2 0.12500000E+03</rscale>
<asrwt>0</asrwt>
<pdfrwt beam="1">  1       21 0.83280592E-02 0.12500000E+03</pdfrwt>
<pdfrwt beam="2">  1       21 0.10143747E-01 0.12500000E+03</pdfrwt>
<totfact> 0.88883314E+06</totfact>
</mgrwt>
</event>
<event>
 6      0 +4.1053447e-01 1.25000000e+02 7.54677100e-03 1.12640300e-01
       21 -1    0    0  502  501 +0.0000000000e+00 +0.0000000000e+00 +4.7193519168e+01 4.7193519168e+01 0.0000000000e+00 0.0000e+00 1.0000e+00
       21 -1    0    0  501  502 -0.0000000000e+00 -0.0000000000e+00 -8.2770898819e+01 8.2770898819e+01 0.0000000000e+00 0.0000e+00 1.0000e+00
       25  2    1    2    0    0 +0.0000000000e+00 +0.0000000000e+00 -3.5577379651e+01 1.2996441799e+02 1.2500000000e+02 0.0000e+00 0.0000e+00
      -15  1    3    3    0    0 +1.2247292475e+01 -2.3141790436e+00 +3.4733778236e+01 3.6945157696e+01 1.7770000000e+00 0.0000e+00 -1.0000e+00
       15  1    3    3    0    0 -1.9128163896e+01 -2.5280077820e+01 -4.4119195381e+01 5.4356509442e+01 1.7770000000e+00 0.0000e+00 -1.0000e+00
       22  1    3    3    0    0 +6.8808714215e+00 +2.7594256864e+01 -2.6191962506e+01 3.8662750850e+01 0.0000000000e+00 0.0000e+00 -1.0000e+00
<mgrwt>
<rscale>  2 0.12500000E+03</rscale>
<asrwt>0</asrwt>
<pdfrwt beam="1">  1       21 0.69402234E-02 0.12500000E+03</pdfrwt>
<pdfrwt beam="2">  1       21 0.12172191E-01 0.12500000E+03</pdfrwt>
<totfact> 0.88104458E+06</totfact>
</mgrwt>
</event>
<event>
 6      0 +4.1053447e-01 1.25000000e+02 7.54677100e-03 1.12640300e-01
       21 -1    0    0  502  501 +0.0000000000e+00 +0.0000000000e+00 +1.2131365728e+02 1.2131365728e+02 0.0000000000e+00 0.0000e+00 1.0000e+00
       21 -1    0    0  501  502 -0.0000000000e+00 -0.0000000000e+00 -3.2199589787e+01 3.2199589787e+01 0.0000000000e+00 0.0000e+00 1.0000e+00
       25  2    1    2    0    0 +0.0000000000e+00 +0.0000000000e+00 +8.9114067492e+01 1.5351324707e+02 1.2500000000e+02 0.0000e+00 0.0000e+00
      -15  1    3    3    0    0 -1.6078875488e+01 -4.3479971612e+01 -6.8777977117e+00 4.6898827263e+01 1.7770000000e+00 0.0000e+00 -1.0000e+00
       15  1    3    3    0    0 +1.6078878273e+01 +4.3479971539e+01 +9.5991863159e+01 1.0661441635e+02 1.7770000000e+00 0.0000e+00 -1.0000e+00
       22  1    3    3    0    0 -2.7845882386e-06 +7.2901188298e-08 +2.0406555890e-06 3.4530452466e-06 0.0000000000e+00 0.0000e+00 -1.0000e+00
<mgrwt>
<rscale>  2 0.12500000E+03</rscale>
<asrwt>0</asrwt>
<pdfrwt beam="1">  1       21 0.17840244E-01 0.12500000E+03</pdfrwt>
<pdfrwt beam="2">  1       21 0.47352338E-02 0.12500000E+03</pdfrwt>
<totfact> 0.84040531E+06</totfact>
</mgrwt>
</event>
<event>
 6      0 +4.1053447e-01 1.25000000e+02 7.54677100e-03 1.12640300e-01
       21 -1    0    0  502  501 +0.0000000000e+00 +0.0000000000e+00 +1.0235643863e+03 1.0235643863e+03 0.0000000000e+00 0.0000e+00 -1.0000e+00
       21 -1    0    0  501  502 -0.0000000000e+00 -0.0000000000e+00 -3.8163207438e+00 3.8163207438e+00 0.0000000000e+00 0.0000e+00 -1.0000e+00
       25  2    1    2    0    0 +0.0000000000e+00 +0.0000000000e+00 +1.0197480655e+03 1.0273807070e+03 1.2500000000e+02 0.0000e+00 0.0000e+00
      -15  1    3    3    0    0 +1.0321399259e+01 -2.5458272745e+01 +4.8695712750e+01 5.5938225777e+01 1.7770000000e+00 0.0000e+00 -1.0000e+00
       15  1    3    3    0    0 -1.0321307788e+01 +2.5458355864e+01 +9.7104958936e+02 9.7143971507e+02 1.7770000000e+00 0.0000e+00 -1.0000e+00
       22  1    3    3    0    0 -9.1471722939e-05 -8.3118459673e-05 +2.7625775225e-03 2.7653409053e-03 0.0000000000e+00 0.0000e+00 1.0000e+00
<mgrwt>
<rscale>  2 0.12500000E+03</rscale>
<asrwt>0</asrwt>
<pdfrwt beam="1">  1       21 0.15052398E+00 0.12500000E+03</pdfrwt>
<pdfrwt beam="2">  1       21 0.56122435E-03 0.12500000E+03</pdfrwt>
<totfact> 0.20375945E+06</totfact>
</mgrwt>
</event>
<event>
 6      0 +4.1053447e-01 1.25000000e+02 7.54677100e-03 1.12640300e-01
       21 -1    0    0  502  501 +0.0000000000e+00 +0.0000000000e+00 +1.1370516953e+03 1.1370516953e+03 0.0000000000e+00 0.0000e+00 -1.0000e+00
       21 -1    0    0  501  502 -0.0000000000e+00 -0.0000000000e+00 -3.4354198811e+00 3.4354198811e+00 0.0000000000e+00 0.0000e+00 -1.0000e+00
       25  2    1    2    0    0 +0.0000000000e+00 +0.0000000000e+00 +1.1336162755e+03 1.1404871152e+03 1.2500000000e+02 0.0000e+00 0.0000e+00
      -15  1    3    3    0    0 +3.3759321626e+01 +1.8199983567e+01 +1.1684937736e+02 1.2299538982e+02 1.7770000000e+00 0.0000e+00 1.0000e+00
       15  1    3    3    0    0 -3.3726818705e+01 -1.8161269049e+01 +1.0157214086e+03 1.0164450146e+03 1.7770000000e+00 0.0000e+00 1.0000e+00
       22  1    3    3    0    0 -3.2502920763e-02 -3.8714518364e-02 +1.0454946304e+00 1.0467159481e+00 0.0000000000e+00 0.0000e+00 -1.0000e+00
<mgrwt>
<rscale>  2 0.12500000E+03</rscale>
<asrwt>0</asrwt>
<pdfrwt beam="1">  1       21 0.16721322E+00 0.12500000E+03</pdfrwt>
<pdfrwt beam="2">  1       21 0.50520960E-03 0.12500000E+03</pdfrwt>
<totfact> 0.17400068E+06</totfact>
</mgrwt>
</event>
<event>
 6      0 +4.1053447e-01 1.25000000e+02 7.54677100e-03 1.12640300e-01
       21 -1    0    0  502  501 +0.0000000000e+00 +0.0000000000e+00 +6.1686534597e+01 6.1686534597e+01 0.0000000000e+00 0.0000e+00 1.0000e+00
       21 -1    0    0  501  502 -0.0000000000e+00 -0.0000000000e+00 -6.3324192638e+01 6.3324192638e+01 0.0000000000e+00 0.0000e+00 1.0000e+00
       25  2    1    2    0    0 +0.0000000000e+00 +0.0000000000e+00 -1.6376580411e+00 1.2501072724e+02 1.2500000000e+02 0.0000e+00 0.0000e+00
      -15  1    3    3    0    0 -6.1572484604e+01 -1.0478899419e+01 +6.3518474767e-01 6.2486313558e+01 1.7770000000e+00 0.0000e+00 -1.0000e+00
       15  1    3    3    0    0 +6.1572349616e+01 +1.0478908132e+01 -2.2728226955e+00 6.2524276925e+01 1.7770000000e+00 0.0000e+00 -1.0000e+00
       22  1    3    3    0    0 +1.3498778715e-04 -8.7133087195e-06 -2.0093244256e-05 1.3675292646e-04 0.0000000000e+00 0.0000e+00 -1.0000e+00
<mgrwt>
<rscale>  2 0.12500000E+03</rscale>
<asrwt>0</asrwt>
<pdfrwt beam="1">  1       21 0.90715493E-02 0.12500000E+03</pdfrwt>
<pdfrwt beam="2">  1       21 0.93123812E-02 0.12500000E+03</pdfrwt>
<totfact> 0.88999987E+06</totfact>
</mgrwt>
</event>
<event>
 6      0 +4.1053447e-01 1.25000000e+02 7.54677100e-03 1.12640300e-01
       21 -1    0    0  502  501 +0.0000000000e+00 +0.0000000000e+00 +1.2018639531e+01 1.2018639531e+01 0.0000000000e+00 0.0000e+00 1.0000e+00
       21 -1    0    0  501  502 -0.0000000000e+00 -0.0000000000e+00 -3.2501598786e+02 3.2501598786e+02 0.0000000000e+00 0.0000e+00 1.0000e+00
       25  2    1    2    0    0 +0.0000000000e+00 +0.0000000000e+00 -3.1299734833e+02 3.3703462739e+02 1.2500000000e+02 0.0000e+00 0.0000e+00
      -15  1    3    3    0    0 +5.4050485959e+01 -3.0562091045e+01 -1.3789730667e+02 1.5124259108e+02 1.7770000000e+00 0.0000e+00 -1.0000e+00
       15  1    3    3    0    0 -5.4050489617e+01 +3.0562082571e+01 -1.7509995070e+02 1.8579194488e+02 1.7770000000e+00 0.0000e+00 -1.0000e+00
       22  1    3    3    0    0 +3.6584085708e-06 +8.4736186998e-06 -9.0974257505e-05 9.1441247234e-05 0.0000000000e+00 0.0000e+00 1.0000e+00
<mgrwt>
<rscale>  2 0.12500000E+03</rscale>
<asrwt>0</asrwt>
<pdfrwt beam="1">  1       21 0.17674472E-02 0.12500000E+03</pdfrwt>
<pdfrwt beam="2">  1       21 0.47796464E-01 0.12500000E+03</pdfrwt>
<totfact> 0.59876037E+06</totfact>
</mgrwt>
</event>
<event>
 6      0 +4.1053447e-01 1.25000000e+02 7.54677100e-03 1.12640300e-01
       21 -1    0    0  502  501 +0.0000000000e+00 +0.0000000000e+00 +1.0037758100e+03 1.0037758100e+03 0.0000000000e+00 0.0000e+00 -1.0000e+00
       21 -1    0    0  501  502 -0.0000000000e+00 -0.0000000000e+00 -3.8915562231e+00 3.8915562231e+00 0.0000000000e+00 0.0000e+00 -1.0000e+00
       25  2    1    2    0    0 +0.0000000000e+00 +0.0000000000e+00 +9.9988425378e+02 1.0076673662e+03 1.2500000000e+02 0.0000e+00 0.0000e+00
      -15  1    3    3    0    0 +2.0334561895e+01 -5.2736301921e+01 +7.1451315369e+02 7.1674738680e+02 1.7770000000e+00 0.0000e+00 1.0000e+00
       15  1    3    3    0    0 -2.0334561849e+01 +5.2736301831e+01 +2.8537110087e+02 2.9091998019e+02 1.7770000000e+00 0.0000e+00 1.0000e+00
       22  1    3    3    0    0 -4.5777522655e-08 +9.0068562900e-08 +9.0519649601e-07 9.1081755802e-07 0.0000000000e+00 0.0000e+00 -1.0000e+00
<mgrwt>
<rscale>  2 0.12500000E+03</rscale>
<asrwt>0</asrwt>
<pdfrwt beam="1">  1       21 0.14761391E+00 0.12500000E+03</pdfrwt>
<pdfrwt beam="2">  1       21 0.57228838E-03 0.12500000E+03</pdfrwt>
<totfact> 0.20951768E+06</totfact>
</mgrwt>
</event>
<event>
 6      0 +4.1053447e-01 1.25000000e+02 7.54677100e-03 1.12640300e-01
       21 -1    0    0  502  501 +0.0000000000e+00 +0.0000000000e+00 +1.4110693061e+02 1.4110693061e+02 0.0000000000e+00 0.0000e+00 1.0000e+00
       21 -1    0    0  501  502 -0.0000000000e+00 -0.0000000000e+00 -2.7682906737e+01 2.7682906737e+01 0.0000000000e+00 0.0000e+00 1.0000e+00
       25  2    1    2    0    0 +0.0000000000e+00 +0.0000000000e+00 +1.1342402387e+02 1.6878983734e+02 1.2500000000e+02 0.0000e+00 0.0000e+00
      -15  1    3    3    0    0 -5.9201882910e+01 -1.5962603962e+00 +2.9852046523e+01 6.6345409773e+01 1.7770000000e+00 0.0000e+00 -1.0000e+00
       15  1    3    3    0    0 +5.9201523423e+01 +1.5959094659e+00 +8.3571118466e+01 1.0244343255e+02 1.7770000000e+00 0.0000e+00 -1.0000e+00
       22  1    3    3    0    0 +3.5948648607e-04 +3.5093027693e-04 +8.5888669484e-04 9.9502208393e-04 0.0000000000e+00 0.0000e+00 1.0000e+00
<mgrwt>
<rscale>  2 0.12500000E+03</rscale>
<asrwt>0</asrwt>
<pdfrwt beam="1">  1       21 0.20751019E-01 0.12500000E+03</pdfrwt>
<pdfrwt beam="2">  1       21 0.40710158E-02 0.12500000E+03</pdfrwt>
<totfact> 0.81556779E+06</totfact>
</mgrwt>
</event>
<event>
 6      0 +4.1053447e-01 1.25000000e+02 7.54677100e-03 1.12640300e-01
       21 -1    0    0  502  501 +0.0000000000e+00 +0.0000000000e+00 +5.3997906526e+01 5.3997906526e+01 0.0000000000e+00 0.0000e+00 1.0000e+00
       21 -1    0    0  501  502 -0.0000000000e+00 -0.0000000000e+00 -7.2340767472e+01 7.2340767472e+01 0.0000000000e+00 0.0000e+00 1.0000e+00
       25  2    1    2    0    0 +0.0000000000e+00 +0.0000000000e+00 -1.8342860946e+01 1.2633867400e+02 1.2500000000e+02 0.0000e+00 0.0000e+00
      -15  1    3    3    0    0 -4.3097730278e+01 -4.4577675641e+01 -2.6685672197e+00 6.2087539013e+01 1.7770000000e+00 0.0000e+00 1.0000e+00
       15  1    3    3    0    0 +4.3045824495e+01 +4.4034745091e+01 -1.5039244266e+01 6.3414023518e+01 1.7770000000e+00 0.0000e+00 1.0000e+00
       22  1    3    3    0    0 +5.1905782209e-02 +5.4293054993e-01 -6.3504945994e-01 8.3711146740e-01 0.0000000000e+00 0.0000e+00 1.0000e+00
<mgrwt>
<rscale>  2 0.12500000E+03</rscale>
<asrwt>0</asrwt>
<pdfrwt beam="1">  1       21 0.79408687E-02 0.12500000E+03</pdfrwt>
<pdfrwt beam="2">  1       21 0.10638348E-01 0.12500000E+03</pdfrwt>
<totfact> 0.88750881E+06</totfact>
</mgrwt>
</event>
<event>
 6      0 +4.1053447e-01 1.25000000e+02 7.54677100e-03 1.12640300e-01
       21 -1    0    0  502  501 +0.0000000000e+00 +0.0000000000e+00 +3.1785874383e+02 3.1785874383e+02 0.0000000000e+00 0.0000e+00 1.0000e+00
       21 -1    0    0  501  502 -0.0000000000e+00 -0.0000000000e+00 -1.2289263945e+01 1.2289263945e+01 0.0000000000e+00 0.0000e+00 1.0000e+00
       25  2    1    2    0    0 +0.0000000000e+00 +0.0000000000e+00 +3.0556947988e+02 3.3014800777e+02 1.2500000000e+02 0.0000e+00 0.0000e+00
      -15  1    3    3    0    0 +5.0381491280e+01 +3.4454193760e+01 +1.6939739953e+02 1.8006671772e+02 1.7770000000e+00 0.0000e+00 -1.0000e+00
       15  1    3    3    0    0 -5.0832920837e+01 -3.5446517720e+01 +1.3340008339e+02 1.4710262212e+02 1.7770000000e+00 0.0000e+00 -1.0000e+00
       22  1    3    3    0    0 +4.5142955713e-01 +9.9232395965e-01 +2.7719969556e+00 2.9786679251e+00 0.0000000000e+00 0.0000e+00 -1.0000e+00
<mgrwt>
<rscale>  2 0.12500000E+03</rscale>
<asrwt>0</asrwt>
<pdfrwt beam="1">  1       21 0.46743928E-01 0.12500000E+03</pdfrwt>
<pdfrwt beam="2">  1       21 0.18072449E-02 0.12500000E+03</pdfrwt>
<totfact> 0.60607420E+06</totfact>
</mgrwt>
</event>
<event>
 6      0 +4.1053447e-01 1.25000000e+02 7.54677100e-03 1.12640300e-01
       21 -1    0    0  502  501 +0.0000000000e+00 +0.0000000000e+00 +5.1049892411e+02 5.1049892411e+02 0.0000000000e+00 0.0000e+00 1.0000e+00
       21 -1    0    0  501  502 -0.0000000000e+00 -0.0000000000e+00 -7.6518280754e+00 7.6518280754e+00 0.0000000000e+00 0.0000e+00 1.0000e+00
       25  2    1    2    0    0 +0.0000000000e+00 +0.0000000000e+00 +5.0284709604e+02 5.1815075219e+02 1.2500000000e+02 0.0000e+00 0.0000e+00
      -15  1    3    3    0    0 +1.3436829147e+01 -4.9194077740e+01 +1.0182314909e+02 1.1389344618e+02 1.7770000000e+00 0.0000e+00 -1.0000e+00
       15  1    3    3    0    0 -1.3436826166e+01 +4.9194070997e+01 +4.0102390495e+02 4.0425726338e+02 1.7770000000e+00 0.0000e+00 -1.0000e+00
       22  1    3    3    0    0 -2.9814830956e-06 +6.7430183637e-06 +4.2008976770e-05 4.2651045325e-05 0.0000000000e+00 0.0000e+00 1.0000e+00
<mgrwt>
<rscale>  2 0.12500000E+03</rscale>
<asrwt>0</asrwt>
<pdfrwt beam="1">  1       21 0.75073348E-01 0.12500000E+03</pdfrwt>
<pdfrwt beam="2">  1       21 0.11252692E-02 0.12500000E+03</pdfrwt>
<totfact> 0.44003107E+06</totfact>
</mgrwt>
</event>
<event>
 6      0 +4.1053447e-01 1.25000000e+02 7.54677100e-03 1.12640300e-01
       21 -1    0    0  502  501 +0.0000000000e+00 +0.0000000000e+00 +1.1454182726e+01 1.1454182726e+01 0.0000000000e+00 0.0000e+00 -1.0000e+00
       21 -1    0    0  501  502 -0.0000000000e+00 -0.0000000000e+00 -3.4103262480e+02 3.4103262480e+02 0.0000000000e+00 0.0000e+00 -1.0000e+00
       25  2    1    2    0    0 +0.0000000000e+00 +0.0000000000e+00 -3.2957844207e+02 3.5248680752e+02 1.2500000000e+02 0.0000e+00 0.0000e+00
      -15  1    3    3    0    0 -1.9208130446e+01 +2.1802476348e+01 -3.2074725422e+02 3.2206561298e+02 1.7770000000e+00 0.0000e+00 -1.0000e+00
       15  1    3    3    0    0 +1.9207688276e+01 -2.1801797463e+01 -8.8310785201e+00 3.0420377025e+01 1.7770000000e+00 0.0000e+00 -1.0000e+00
       22  1    3    3    0    0 +4.4216966506e-04 -6.7888481000e-04 -1.0935173830e-04 8.1753067263e-04 0.0000000000e+00 0.0000e+00 -1.0000e+00
<mgrwt>
<rscale>  2 0.12500000E+03</rscale>
<asrwt>0</asrwt>
<pdfrwt beam="1">  1       21 0.16844384E-02 0.12500000E+03</pdfrwt>
<pdfrwt beam="2">  1       21 0.50151864E-01 0.12500000E+03</pdfrwt>
<totfact> 0.58274833E+06</totfact>
</mgrwt>
</event>
<event>
 6      0 +4.1053447e-01 1.25000000e+02 7.54677100e-03 1.12640300e-01
       21 -1    0    0  502  501 +0.0000000000e+00 +0.0000000000e+00 +1.3273018355e+01 1.3273018355e+01 0.0000000000e+00 0.0000e+00 1.0000e+00
       21 -1    0    0  501  502 -0.0000000000e+00 -0.0000000000e+00 -2.9430005260e+02 2.9430005260e+02 0.0000000000e+00 0.0000e+00 1.0000e+00
       25  2    1    2    0    0 +0.0000000000e+00 +0.0000000000e+00 -2.8102703424e+02 3.0757307095e+02 1.2500000000e+02 0.0000e+00 0.0000e+00
      -15  1    3    3    0    0 +4.9292914218e+00 +3.3676329094e+01 -2.6942295093e+02 2.7157002278e+02 1.7770000000e+00 0.0000e+00 -1.0000e+00
       15  1    3    3    0    0 -4.9293170658e+00 -3.3676355999e+01 -1.1603844112e+01 3.6002806103e+01 1.7770000000e+00 0.0000e+00 -1.0000e+00
       22  1    3    3    0    0 +2.5643979943e-05 +2.6904852610e-05 -2.3920157467e-04 2.4207205152e-04 0.0000000000e+00 0.0000e+00 1.0000e+00
<mgrwt>
<rscale>  2 0.12500000E+03</rscale>
<asrwt>0</asrwt>
<pdfrwt beam="1">  1       21 0.19519145E-02 0.12500000E+03</pdfrwt>
<pdfrwt beam="2">  1       21 0.43279418E-01 0.12500000E+03</pdfrwt>
<totfact> 0.63087815E+06</totfact>
</mgrwt>
</event>
<event>
 6      0 +4.1053447e-01 1.25000000e+02 7.54677100e-03 1.12640300e-01
       21 -1    0    0  502  501 +0.0000000000e+00 +0.0000000000e+00 +8.1237115937e+02 8.1237115937e+02 0.0000000000e+00 0.0000e+00 1.0000e+00
       21 -1    0    0  501  502 -0.0000000000e+00 -0.0000000000e+00 -4.8084547992e+00 4.8084547992e+00 0.0000000000e+00 0.0000e+00 1.0000e+00
       25  2    1    2    0    0 +0.0000000000e+00 +0.0000000000e+00 +8.0756270457e+02 8.1717961417e+02 1.2500000000e+02 0.0000e+00 0.0000e+00
      -15  1    3    3    0    0 +1.8171586374e+01 -2.9982818097e-01 +7.9436287758e+02 7.9457273768e+02 1.7770000000e+00 0.0000e+00 1.0000e+00
       15  1    3    3    0    0 -1.8165182688e+01 +2.8340482501e-01 +1.3009168510e+01 2.2415404853e+01 1.7770000000e+00 0.0000e+00 1.0000e+00
       22  1    3    3    0    0 -6.4036857276e-03 +1.6423355958e-02 +1.9065841146e-01 1.9147157406e-01 0.0000000000e+00 0.0000e+00 1.0000e+00
<mgrwt>
<rscale>  2 0.12500000E+03</rscale>
<asrwt>0</asrwt>
<pdfrwt beam="1">  1       21 0.11946625E+00 0.12500000E+03</pdfrwt>
<pdfrwt beam="2">  1       21 0.70712627E-03 0.12500000E+03</pdfrwt>
<totfact> 0.27574697E+06</totfact>
</mgrwt>
</event>
<event>
 6      0 +4.1053447e-01 1.25000000e+02 7.54677100e-03 1.12640300e-01
       21 -1    0    0  502  501 +0.0000000000e+00 +0.0000000000e+00 +1.4762560805e+01 1.4762560805e+01 0.0000000000e+00 0.0000e+00 1.0000e+00
       21 -1    0    0  501  502 -0.0000000000e+00 -0.0000000000e+00 -2.6460517600e+02 2.6460517600e+02 0.0000000000e+00 0.0000e+00 1.0000e+00
       25  2    1    2    0    0 +0.0000000000e+00 +0.0000000000e+00 -2.4984261520e+02 2.7936773681e+02 1.2500000000e+02 0.0000e+00 0.0000e+00
      -15  1    3    3    0    0 -2.7662624085e+01 -5.5630479010e+01 -1.3959360092e+02 1.5280543875e+02 1.7770000000e+00 0.0000e+00 1.0000e+00
       15  1    3    3    0    0 +2.7662713056e+01 +5.5630617513e+01 -1.1024862798e+02 1.2656187815e+02 1.7770000000e+00 0.0000e+00 1.0000e+00
       22  1    3    3    0    0 -8.8970617219e-05 -1.3850283626e-04 -3.8629657241e-04 4.1990933335e-04 0.0000000000e+00 0.0000e+00 1.0000e+00
<mgrwt>
<rscale>  2 0.12500000E+03</rscale>
<asrwt>0</asrwt>
<pdfrwt beam="1">  1       21 0.21709650E-02 0.12500000E+03</pdfrwt>
<pdfrwt beam="2">  1       21 0.38912523E-01 0.12500000E+03</pdfrwt>
<totfact> 0.66366881E+06</totfact>
</mgrwt>
</event>
<event>
 6      0 +4.1053447e-01 1.25000000e+02 7.54677100e-03 1.12640300e-01
       21 -1    0    0  502  501 +0.0000000000e+00 +0.0000000000e+00 +8.7865810924e+02 8.7865810924e+02 0.0000000000e+00 0.0000e+00 -1.0000e+00
       21 -1    0    0  501  502 -0.0000000000e+00 -0.0000000000e+00 -4.4456995946e+00 4.4456995946e+00 0.0000000000e+00 0.0000e+00 -1.0000e+00
       25  2    1    2    0    0 +0.0000000000e+00 +0.0000000000e+00 +8.7421240964e+02 8.8310380883e+02 1.2500000000e+02 0.0000e+00 0.0000e+00
      -15  1    3    3    0    0 +3.7278972898e+01 +3.3180125067e+01 +7.0262069024e+02 7.0439309664e+02 1.7770000000e+00 0.0000e+00 1.0000e+00
       15  1    3    3    0    0 -3.7278902513e+01 -3.3180086087e+01 +1.7159146746e+02 1.7871044771e+02 1.7770000000e+00 0.0000e+00 1.0000e+00
       22  1    3    3    0    0 -7.0385297523e-05 -3.8980191639e-05 +2.5189980455e-04 2.6443724583e-04 0.0000000000e+00 0.0000e+00 1.0000e+00
<mgrwt>
<rscale>  2 0.12500000E+03</rscale>
<asrwt>0</asrwt>
<pdfrwt beam="1">  1       21 0.12921431E+00 0.12500000E+03</pdfrwt>
<pdfrwt beam="2">  1       21 0.65377996E-03 0.12500000E+03</pdfrwt>
<totfact> 0.25034003E+06</totfact>
</mgrwt>
</event>
<event>
 6      0 +4.1053447e-01 1.25000000e+02 7.54677100e-03 1.12640300e-01
       21 -1    0    0  502  501 +0.0000000000e+00 +0.0000000000e+00 +5.0220801060e+01 5.0220801060e+01 0.0000000000e+00 0.0000e+00 1.0000e+00
       21 -1    0    0  501  502 -0.0000000000e+00 -0.0000000000e+00 -7.7781515181e+01 7.7781515181e+01 0.0000000000e+00 0.0000e+00 1.0000e+00
       25  2    1    2    0    0 +0.0000000000e+00 +0.0000000000e+00 -2.7560714121e+01 1.2800231624e+02 1.2500000000e+02 0.0000e+00 0.0000e+00
      -15  1    3    3    0    0 -1.6772497601e+01 -5.3612457478e+01 +1.4212260079e+01 5.7972047904e+01 1.7770000000e+00 0.0000e+00 -1.0000e+00
       15  1    3    3    0    0 +1.6774960659e+01 +5.3613339428e+01 -4.1769841874e+01 7.0026187164e+01 1.7770000000e+00 0.0000e+00 -1.0000e+00
       22  1    3    3    0    0 -2.4630583542e-03 -8.8194948283e-04 -3.1323264947e-03 4.0811714759e-03 0.0000000000e+00 0.0000e+00 1.0000e+00
<mgrwt>
<rscale>  2 0.12500000E+03</rscale>
<asrwt>0</asrwt>
<pdfrwt beam="1">  1       21 0.73854120E-02 0.12500000E+03</pdfrwt>
<pdfrwt beam="2">  1       21 0.11438458E-01 0.12500000E+03</pdfrwt>
<totfact> 0.88457273E+06</totfact>
</mgrwt>
</event>
<event>
 6      0 +4.1053447e-01 1.25000000e+02 7.54677100e-03 1.12640300e-01
       21 -1    0    0  502  501 +0.0000000000e+00 +0.0000000000e+00 +1.5118181728e+02 1.5118181728e+02 0.0000000000e+00 0.0000e+00 -1.0000e+00
       21 -1    0    0  501  502 -0.0000000000e+00 -0.0000000000e+00 -2.5838093960e+01 2.5838093960e+01 0.0000000000e+00 0.0000e+00 -1.0000e+00
       25  2    1    2    0    0 +0.0000000000e+00 +0.0000000000e+00 +1.2534372332e+02 1.7701991124e+02 1.2500000000e+02 0.0000e+00 0.0000e+00
      -15  1    3    3    0    0 -1.3904398139e+01 -3.6461832363e+01 +1.2427777834e+02 1.3027248913e+02 1.7770000000e+00 0.0000e+00 1.0000e+00
       15  1    3    3    0    0 +1.4643435883e+01 +3.8153434138e+01 -4.2445014103e+00 4.1125275345e+01 1.7770000000e+00 0.0000e+00 1.0000e+00
       22  1    3    3    0    0 -7.3903774377e-01 -1.6916017748e+00 +5.3104463955e+00 5.6221467671e+00 0.0000000000e+00 0.0000e+00 1.0000e+00
<mgrwt>
<rscale>  2 0.12500000E+03</rscale>
<asrwt>0</asrwt>
<pdfrwt beam="1">  1       21 0.22232620E-01 0.12500000E+03</pdfrwt>
<pdfrwt beam="2">  1       21 0.37997198E-02 0.12500000E+03</pdfrwt>
<totfact> 0.80264788E+06</totfact>
</mgrwt>
</event>
<event>
 6      0 +4.1053447e-01 1.25000000e+02 7.54677100e-03 1.12640300e-01
       21 -1    0    0  502  501 +0.0000000000e+00 +0.0000000000e+00 +2.1020315729e+01 2.1020315729e+01 0.0000000000e+00 0.0000e+00 -1.0000e+00
       21 -1    0    0  501  502 -0.0000000000e+00 -0.0000000000e+00 -1.8583212785e+02 1.8583212785e+02 0.0000000000e+00 0.0000e+00 -1.0000e+00
       25  2    1    2    0    0 +0.0000000000e+00 +0.0000000000e+00 -1.6481181212e+02 2.0685244358e+02 1.2500000000e+02 0.0000e+00 0.0000e+00
      -15  1    3    3    0    0 -3.2735209085e+01 -2.9388548010e+01 -8.9980735213e+00 4.4937776136e+01 1.7770000000e+00 0.0000e+00 1.0000e+00
       15  1    3    3    0    0 +3.2735209085e+01 +2.9388548009e+01 -1.5581373859e+02 1.6191466744e+02 1.7770000000e+00 0.0000e+00 1.0000e+00
       22  1    3    3    0    0 +1.0368986187e-11 +9.0673285176e-10 -3.3863346705e-09 3.5056432335e-09 0.0000000000e+00 0.0000e+00 -1.0000e+00
<mgrwt>
<rscale>  2 0.12500000E+03</rscale>
<asrwt>0</asrwt>
<pdfrwt beam="1">  1       21 0.30912230E-02 0.12500000E+03</pdfrwt>
<pdfrwt beam="2">  1       21 0.27328253E-01 0.12500000E+03</pdfrwt>
<totfact> 0.75830768E+06</totfact>
</mgrwt>
</event>
<event>
 6      0 +4.1053447e-01 1.25000000e+02 7.54677100e-03 1.12640300e-01
       21 -1    0    0  502  501 +0.0000000000e+00 +0.0000000000e+00 +6.1455794778e+00 6.1455794778e+00 0.0000000000e+00 0.0000e+00 -1.0000e+00
       21 -1    0    0  501  502 -0.0000000000e+00 -0.0000000000e+00 -6.3561947479e+02 6.3561947479e+02 0.0000000000e+00 0.0000e+00 -1.0000e+00
       25  2    1    2    0    0 +0.0000000000e+00 +0.0000000000e+00 -6.2947389532e+02 6.4176505427e+02 1.2500000000e+02 0.0000e+00 0.0000e+00
      -15  1    3    3    0    0 +2.8223910981e+01 +1.7896827996e+01 -5.8573892523e+02 5.8669424052e+02 1.7770000000e+00 0.0000e+00 1.0000e+00
       15  1    3    3    0    0 -2.8223910263e+01 -1.7896826022e+01 -4.3734807083e+01 5.5070650730e+01 1.7770000000e+00 0.0000e+00 1.0000e+00
       22  1    3    3    0    0 -7.1811256613e-07 -1.9735289024e-06 -1.6315638166e-04 1.6316989728e-04 0.0000000000e+00 0.0000e+00 -1.0000e+00
<mgrwt>
<rscale>  2 0.12500000E+03</rscale>
<asrwt>0</asrwt>
<pdfrwt beam="1">  1       21 0.90376176E-03 0.12500000E+03</pdfrwt>
<pdfrwt beam="2">  1       21 0.93473444E-01 0.12500000E+03</pdfrwt>
<totfact> 0.36011586E+06</totfact>
</mgrwt>
</event>
<event>
 6      0 +4.1053447e-01 1.25000000e+02 7.54677100e-03 1.12640300e-01
       21 -1    0    0  502  501 +0.0000000000e+00 +0.0000000000e+00 +1.9855590758e+01 1.9855590758e+01 0.0000000000e+00 0.0000e+00 1.0000e+00
       21 -1    0    0  501  502 -0.0000000000e+00 -0.0000000000e+00 -1.9673300319e+02 1.9673300319e+02 0.0000000000e+00 0.0000e+00 1.0000e+00
       25  2    1    2    0    0 +0.0000000000e+00 +0.0000000000e+00 -1.7687741243e+02 2.1658859395e+02 1.2500000000e+02 0.0000e+00 0.0000e+00
      -15  1    3    3    0    0 +1.3467801845e+01 +6.2491603539e+00 -1.9306909364e+02 1.9364727300e+02 1.7770000000e+00 0.0000e+00 -1.0000e+00
       15  1    3    3    0    0 -1.3014162872e+01 -6.0051251031e+00 +1.6793138881e+01 2.2149429005e+01 1.7770000000e+00 0.0000e+00 -1.0000e+00
       22  1    3    3    0    0 -4.5363897280e-01 -2.4403525078e-01 -6.0145766513e-01 7.9189193973e-01 0.0000000000e+00 0.0000e+00 -1.0000e+00
<mgrwt>
<rscale>  2 0.12500000E+03</rscale>
<asrwt>0</asrwt>
<pdfrwt beam="1">  1       21 0.29199397E-02 0.12500000E+03</pdfrwt>
<pdfrwt beam="2">  1       21 0.28931326E-01 0.12500000E+03</pdfrwt>
<totfact> 0.74463396E+06</totfact>
</mgrwt>
</event>
<event>
 6      0 +4.1053447e-01 1.25000000e+02 7.54677100e-03 1.12640300e-01
       21 -1    0    0  502  501 +0.0000000000e+00 +0.0000000000e+00 +9.5499487073e+00 9.5499487073e+00 0.0000000000e+00 0.0000e+00 -1.0000e+00
       21 -1    0    0  501  502 -0.0000000000e+00 -0.0000000000e+00 -4.0903361052e+02 4.0903361052e+02 0.0000000000e+00 0.0000e+00 -1.0000e+00
       25  2    1    2    0    0 +0.0000000000e+00 +0.0000000000e+00 -3.9948366181e+02 4.1858355923e+02 1.2500000000e+02 0.0000e+00 0.0000e+00
      -15  1    3    3    0    0 -4.6969474629e+01 -2.5626631924e+00 -6.2275499133e+01 7.8064680303e+01 1.7770000000e+00 0.0000e+00 -1.0000e+00
       15  1    3    3    0    0 +4.7017808951e+01 +2.6973317815e+00 -3.3688360655e+02 3.4016418395e+02 1.7770000000e+00 0.0000e+00 -1.0000e+00
       22  1    3    3    0    0 -4.8334322595e-02 -1.3466858911e-01 -3.2455607263e-01 3.5469491104e-01 0.0000000000e+00 0.0000e+00 1.0000e+00
<mgrwt>
<rscale>  2 0.12500000E+03</rscale>
<asrwt>0</asrwt>
<pdfrwt beam="1">  1       21 0.14044046E-02 0.12500000E+03</pdfrwt>
<pdfrwt beam="2">  1       21 0.60151986E-01 0.12500000E+03</pdfrwt>
<totfact> 0.51973474E+06</totfact>
</mgrwt>
</event>
<event>
 6      0 +4.1053447e-01 1.25000000e+02 7.54677100e-03 1.12640300e-01
       21 -1    0    0  502  501 +0.0000000000e+00 +0.0000000000e+00 +4.2341343212e+01 4.2341343212e+01 0.0000000000e+00 0.0000e+00 -1.0000e+00
       21 -1    0    0  501  502 -0.0000000000e+00 -0.0000000000e+00 -9.2256166282e+01 9.2256166282e+01 0.0000000000e+00 0.0000e+00 -1.0000e+00
       25  2    1    2    0    0 +0.0000000000e+00 +0.0000000000e+00 -4.9914823070e+01 1.3459750949e+02 1.2500000000e+02 0.0000e+00 0.0000e+00
      -15  1    3    3    0    0 +1.8655395162e+01 -3.2762129169e+01 -7.8599125725e+01 8.7191520058e+01 1.7770000000e+00 0.0000e+00 -1.0000e+00
       15  1    3    3    0    0 -1.8655393337e+01 +3.2762124453e+01 +2.8684299873e+01 4.7405983668e+01 1.7770000000e+00 0.0000e+00 -1.0000e+00
       22  1    3    3    0    0 -1.8250438300e-06 +4.7154414805e-06 +2.7788522241e-06 5.7695921018e-06 0.0000000000e+00 0.0000e+00 -1.0000e+00
<mgrwt>
<rscale>  2 0.12500000E+03</rscale>
<asrwt>0</asrwt>
<pdfrwt beam="1">  1       21 0.62266682E-02 0.12500000E+03</pdfrwt>
<pdfrwt beam="2">  1       21 0.13567083E-01 0.12500000E+03</pdfrwt>
<totfact> 0.87276379E+06</totfact>
</mgrwt>
</event>
<event>
 6      0 +4.1053447e-01 1.25000000e+02 7.54677100e-03 1.12640300e-01
       21 -1    0    0  502  501 +0.0000000000e+00 +0.0000000000e+00 +1.2882883370e+02 1.2882883370e+02 0.0000000000e+00 0.0000e+00 1.0000e+00
       21 -1    0    0  501  502 -0.0000000000e+00 -0.0000000000e+00 -3.0321240113e+01 3.0321240113e+01 0.0000000000e+00 0.0000e+00 1.0000e+00
       25  2    1    2    0    0 +0.0000000000e+00 +0.0000000000e+00 +9.8507593585e+01 1.5915007381e+02 1.2500000000e+02 0.0000e+00 0.0000e+00
      -15  1    3    3    0    0 -3.8934522435e+01 -4.8351801601e+01 +4.0314306739e+01 7.4041845007e+01 1.7770000000e+00 0.0000e+00 -1.0000e+00
       15  1    3    3    0    0 +3.8934521314e+01 +4.8351801943e+01 +5.8193276922e+01 8.5108218810e+01 1.7770000000e+00 0.0000e+00 -1.0000e+00
       22  1    3    3    0    0 +1.1206649964e-06 -3.4246610782e-07 +9.9250221591e-06 9.9939600723e-06 0.0000000000e+00 0.0000e+00 -1.0000e+00
<mgrwt>
<rscale>  2 0.12500000E+03</rscale>
<asrwt>0</asrwt>
<pdfrwt beam="1">  1       21 0.18945417E-01 0.12500000E+03</pdfrwt>
<pdfrwt beam="2">  1       21 0.44590059E-02 0.12500000E+03</pdfrwt>
<totfact> 0.83117096E+06</totfact>
</mgrwt>
</event>
<event>
 6      0 +4.1053447e-01 1.25000000e+02 7.54677100e-03 1.12640300e-01
       21 -1    0    0  502  501 +0.0000000000e+00 +0.0000000000e+00 +3.1960824193e+01 3.1960824193e+01 0.0000000000e+00 0.0000e+00 1.0000e+00
       21 -1    0    0  501  502 -0.0000000000e+00 -0.0000000000e+00 -1.2221993952e+02 1.2221993952e+02 0.0000000000e+00 0.0000e+00 1.0000e+00
       25  2    1    2    0    0 +0.0000000000e+00 +0.0000000000e+00 -9.0259115331e+01 1.5418076372e+02 1.2500000000e+02 0.0000e+00 0.0000e+00
      -15  1    3    3    0    0 -9.8066666676e+00 -2.7340624962e+01 +2.2758269377e+01 3.6942888877e+01 1.7770000000e+00 0.0000e+00 -1.0000e+00
       15  1    3    3    0    0 +9.8842381673e+00 +2.7655669340e+01 -1.1313072428e+02 1.1689419453e+02 1.7770000000e+00 0.0000e+00 -1.0000e+00
       22  1    3    3    0    0 -7.7571499735e-02 -3.1504437748e-01 +1.1333956865e-01 3.4368030956e-01 0.0000000000e+00 0.0000e+00 -1.0000e+00
<mgrwt>
<rscale>  2 0.12500000E+03</rscale>
<asrwt>0</asrwt>
<pdfrwt beam="1">  1       21 0.47001212E-02 0.12500000E+03</pdfrwt>
<pdfrwt beam="2">  1       21 0.17973521E-01 0.12500000E+03</pdfrwt>
<totfact> 0.83930320E+06</totfact>
</mgrwt>
</event>
<event>
 6      0 +4.1053447e-01 1.25000000e+02 7.54677100e-03 1.12640300e-01
       21 -1    0    0  502  501 +0.0000000000e+00 +0.0000000000e+00 +3.6190995194e+02 3.6190995194e+02 0.0000000000e+00 0.0000e+00 1.0000e+00
       21 -1    0    0  501  502 -0.0000000000e+00 -0.0000000000e+00 -1.0793430739e+01 1.0793430739e+01 0.0000000000e+00 0.0000e+00 1.0000e+00
       25  2    1    2    0    0 +0.0000000000e+00 +0.0000000000e+00 +3.5111652120e+02 3.7270338268e+02 1.2500000000e+02 0.0000e+00 0.0000e+00
      -15  1    3    3    0    0 +1.8339563663e+01 +5.5169053988e+01 +1.0778574535e+02 1.2247811536e+02 1.7770000000e+00 0.0000e+00 -1.0000e+00
       15  1    3    3    0    0 -1.8371528393e+01 -5.5241200052e+01 +2.4314352959e+02 2.5002207292e+02 1.7770000000e+00 0.0000e+00 -1.0000e+00
       22  1    3    3    0    0 +3.1964730763e-02 +7.2146063509e-02 +1.8724624800e-01 2.0319437955e-01 0.0000000000e+00 0.0000e+00 1.0000e+00
<mgrwt>
<rscale>  2 0.12500000E+03</rscale>
<asrwt>0</asrwt>
<pdfrwt beam="1">  1       21 0.53222044E-01 0.12500000E+03</pdfrwt>
<pdfrwt beam="2">  1       21 0.15872695E-02 0.12500000E+03</pdfrwt>
<totfact> 0.56254591E+06</totfact>
</mgrwt>
</event>
<event>
 6      0 +4.1053447e-01 1.25000000e+02 7.54677100e-03 1.12640300e-01
       21 -1    0    0  502  501 +0.0000000000e+00 +0.0000000000e+00 +5.4793681156e+01 5.4793681156e+01 0.0000000000e+00 0.0000e+00 1.0000e+00
       21 -1    0    0  501  502 -0.0000000000e+00 -0.0000000000e+00 -7.1290154586e+01 7.1290154586e+01 0.0000000000e+00 0.0000e+00 1.0000e+00
       25  2    1    2    0    0 +0.0000000000e+00 +0.0000000000e+00 -1.6496473430e+01 1.2608383574e+02 1.2500000000e+02 0.0000e+00 0.0000e+00
      -15  1    3    3    0    0 +5.7181480440e+01 +1.0527447374e+01 +1.4809175967e+01 6.0025147024e+01 1.7770000000e+00 0.0000e+00 -1.0000e+00
       15  1    3    3    0    0 -5.7181480769e+01 -1.0527447414e+01 -3.1305649478e+01 6.6058688378e+01 1.7770000000e+00 0.0000e+00 -1.0000e+00
       22  1    3    3    0    0 +3.2908937029e-07 +3.9630432926e-08 +8.1049131230e-08 3.4123210066e-07 0.0000000000e+00 0.0000e+00 -1.0000e+00
<mgrwt>
<rscale>  2 0.12500000E+03</rscale>
<asrwt>0</asrwt>
<pdfrwt beam="1">  1       21 0.80578943E-02 0.12500000E+03</pdfrwt>
<pdfrwt beam="2">  1       21 0.10483846E-01 0.12500000E+03</pdfrwt>
<totfact> 0.88796628E+06</totfact>
</mgrwt>
</event>
<event>
 6      0 +4.1053447e-01 1.25000000e+02 7.54677100e-03 1.12640300e-01
       21 -1    0    0  502  501 +0.0000000000e+00 +0.0000000000e+00 +7.5605295002e+00 7.5605295002e+00 0.0000000000e+00 0.0000e+00 -1.0000e+00
       21 -1    0    0  501  502 -0.0000000000e+00 -0.0000000000e+00 -5.1666354849e+02 5.1666354849e+02 0.0000000000e+00 0.0000e+00 -1.0000e+00
       25  2    1    2    0    0 +0.0000000000e+00 +0.0000000000e+00 -5.0910301899e+02 5.2422407799e+02 1.2500000000e+02 0.0000e+00 0.0000e+00
      -15  1    3    3    0    0 +4.4402283588e+01 +3.4354177943e+01 -3.6950426798e+02 3.7374902557e+02 1.7770000000e+00 0.0000e+00 1.0000e+00
       15  1    3    3    0    0 -4.4402278578e+01 -3.4354172456e+01 -1.3959873822e+02 1.5047503763e+02 1.7770000000e+00 0.0000e+00 1.0000e+00
       22  1    3    3    0    0 -5.0097283669e-06 -5.4872396008e-06 -1.2800263859e-05 1.4800470655e-05 0.0000000000e+00 0.0000e+00 -1.0000e+00
<mgrwt>
<rscale>  2 0.12500000E+03</rscale>
<asrwt>0</asrwt>
<pdfrwt beam="1">  1       21 0.11118425E-02 0.12500000E+03</pdfrwt>
<pdfrwt beam="2">  1       21 0.75979938E-01 0.12500000E+03</pdfrwt>
<totfact> 0.43571847E+06</totfact>
</mgrwt>
</event>
<event>
 6      0 +4.1053447e-01 1.25000000e+02 7.54677100e-03 1.12640300e-01
       21 -1    0    0  502  501 +0.0000000000e+00 +0.0000000000e+00 +8.4594780330e+01 8.4594780330e+01 0.0000000000e+00 0.0000e+00 -1.0000e+00
       21 -1    0    0  501  502 -0.0000000000e+00 -0.0000000000e+00 -4.6176016827e+01 4.6176016827e+01 0.0000000000e+00 0.0000e+00 -1.0000e+00
       25  2    1    2    0    0 +0.0000000000e+00 +0.0000000000e+00 +3.8418763502e+01 1.3077079716e+02 1.2500000000e+02 0.0000e+00 0.0000e+00
      -15  1    3    3    0    0 +1.1420380729e+01 +5.5398518367e+01 +4.6960832044e+01 7.3538414509e+01 1.7770000000e+00 0.0000e+00 -1.0000e+00
       15  1    3    3    0    0 -1.1420375140e+01 -5.5398496888e+01 -8.5420681147e+00 5.7232360448e+01 1.7770000000e+00 0.0000e+00 -1.0000e+00
       22  1    3    3    0    0 -5.5896666693e-06 -2.1478950204e-05 -4.2905632486e-07 2.2198508163e-05 0.0000000000e+00 0.0000e+00 -1.0000e+00
<mgrwt>
<rscale>  2 0.12500000E+03</rscale>
<asrwt>0</asrwt>
<pdfrwt beam="1">  1       21 0.12440409E-01 0.12500000E+03</pdfrwt>
<pdfrwt beam="2">  1       21 0.67905907E-02 0.12500000E+03</pdfrwt>
<totfact> 0.87957582E+06</totfact>
</mgrwt>
</event>
<event>
 6      0 +4.1053447e-01 1.25000000e+02 7.54677100e-03 1.12640300e-01
       21 -1    0    0  502  501 +0.0000000000e+00 +0.0000000000e+00 +3.9957239759e+01 3.9957239759e+01 0.0000000000e+00 0.0000e+00 -1.0000e+00
       21 -1    0    0  501  502 -0.0000000000e+00 -0.0000000000e+00 -9.7760756838e+01 9.7760756838e+01 0.0000000000e+00 0.0000e+00 -1.0000e+00
       25  2    1    2    0    0 +0.0000000000e+00 +0.0000000000e+00 -5.7803517079e+01 1.3771799660e+02 1.2500000000e+02 0.0000e+00 0.0000e+00
      -15  1    3    3    0    0 +5.7574344913e+01 +2.3826706411e+01 -2.3904284699e+01 6.6761438619e+01 1.7770000000e+00 0.0000e+00 1.0000e+00
       15  1    3    3    0    0 -5.7574309353e+01 -2.3826702689e+01 -3.3899202938e+01 7.0956511663e+01 1.7770000000e+00 0.0000e+00 1.0000e+00
       22  1    3    3    0    0 -3.5559465913e-05 -3.7219330432e-06 -2.9440148608e-05 4.6314692612e-05 0.0000000000e+00 0.0000e+00 -1.0000e+00
<mgrwt>
<rscale>  2 0.12500000E+03</rscale>
<asrwt>0</asrwt>
<pdfrwt beam="1">  1       21 0.58760647E-02 0.12500000E+03</pdfrwt>
<pdfrwt beam="2">  1       21 0.14376582E-01 0.12500000E+03</pdfrwt>
<totfact> 0.86733945E+06</totfact>
</mgrwt>
</event>
<event>
 6      0 +4.1053447e-01 1.25000000e+02 7.54677100e-03 1.12640300e-01
       21 -1    0    0  502  501 +0.0000000000e+00 +0.0000000000e+00 +5.4942999496e+02 5.4942999496e+02 0.0000000000e+00 0.0000e+00 1.0000e+00
       21 -1    0    0  501  502 -0.0000000000e+00 -0.0000000000e+00 -7.1096409658e+00 7.1096409658e+00 0.0000000000e+00 0.0000e+00 1.0000e+00
       25  2    1    2    0    0 +0.0000000000e+00 +0.0000000000e+00 +5.4232035400e+02 5.5653963593e+02 1.2500000000e+02 0.0000e+00 0.0000e+00
      -15  1    3    3    0    0 -5.4853077413e+01 +2.1695457437e+01 +3.6271784314e+02 3.6748733915e+02 1.7770000000e+00 0.0000e+00 1.0000e+00
       15  1    3    3    0    0 +5.1105376741e+01 -2.0054942276e+01 +1.6661150120e+02 1.7543235250e+02 1.7770000000e+00 0.0000e+00 1.0000e+00
       22  1    3    3    0    0 +3.7477006713e+00 -1.6405151606e+00 +1.2991009689e+01 1.3619944312e+01 0.0000000000e+00 0.0000e+00 -1.0000e+00
<mgrwt>
<rscale>  2 0.12500000E+03</rscale>
<asrwt>0</asrwt>
<pdfrwt beam="1">  1       21 0.80798500E-01 0.12500000E+03</pdfrwt>
<pdfrwt beam="2">  1       21 0.10455358E-02 0.12500000E+03</pdfrwt>
<totfact> 0.41355731E+06</totfact>
</mgrwt>
</event>
<event>
 6      0 +4.1053447e-01 1.25000000e+02 7.54677100e-03 1.12640300e-01
       21 -1    0    0  502  501 +0.0000000000e+00 +0.0000000000e+00 +1.3441357239e+02 1.3441357239e+02 0.0000000000e+00 0.0000e+00 1.0000e+00
       21 -1    0    0  501  502 -0.0000000000e+00 -0.0000000000e+00 -2.9061425351e+01 2.9061425351e+01 0.0000000000e+00 0.0000e+00 1.0000e+00
       25  2    1    2    0    0 +0.0000000000e+00 +0.0000000000e+00 +1.0535214703e+02 1.6347499774e+02 1.2500000000e+02 0.0000e+00 0.0000e+00
      -15  1    3    3    0    0 -1.1579873250e+01 +2.3465708387e+01 -2.1516149416e+01 3.3923964234e+01 1.7770000000e+00 0.0000e+00 -1.0000e+00
       15  1    3    3    0    0 +1.1579990395e+01 -2.3465431971e+01 +1.2686782614e+02 1.2955047554e+02 1.7770000000e+00 0.0000e+00 -1.0000e+00
       22  1    3    3    0    0 -1.1714496383e-04 -2.7641636401e-04 +4.7029954584e-04 5.5795215894e-04 0.0000000000e+00 0.0000e+00 -1.0000e+00
<mgrwt>
<rscale>  2 0.12500000E+03</rscale>
<asrwt>0</asrwt>
<pdfrwt beam="1">  1       21 0.19766702E-01 0.12500000E+03</pdfrwt>
<pdfrwt beam="2">  1       21 0.42737391E-02 0.12500000E+03</pdfrwt>
<totfact> 0.82413673E+06</totfact>
</mgrwt>
</event>
<event>
 6      0 +4.1053447e-01 1.25000000e+02 7.54677100e-03 1.12640300e-01
       21 -1    0    0  502  501 +0.0000000000e+00 +0.0000000000e+00 +3.9375844696e+02 3.9375844696e+02 0.0000000000e+00 0.0000e+00 -1.0000e+00
       21 -1    0    0  501  502 -0.0000000000e+00 -0.0000000000e+00 -9.9204221018e+00 9.9204221018e+00 0.0000000000e+00 0.0000e+00 -1.0000e+00
       25  2    1    2    0    0 +0.0000000000e+00 +0.0000000000e+00 +3.8383802486e+02 4.0367886906e+02 1.2500000000e+02 0.0000e+00 0.0000e+00
      -15  1    3    3    0    0 -7.2741650783e-01 -3.6606622675e+01 +2.8504327388e+01 4.6435206119e+01 1.7770000000e+00 0.0000e+00 -1.0000e+00
       15  1    3    3    0    0 +7.8131353323e-01 +3.6689023502e+01 +3.5498848562e+02 3.5688468383e+02 1.7770000000e+00 0.0000e+00 -1.0000e+00
       22  1    3    3    0    0 -5.3897025399e-02 -8.2400827138e-02 +3.4521188858e-01 3.5897915494e-01 0.0000000000e+00 0.0000e+00 1.0000e+00
<mgrwt>
<rscale>  2 0.12500000E+03</rscale>
<asrwt>0</asrwt>
<pdfrwt beam="1">  1       21 0.57905644E-01 0.12500000E+03</pdfrwt>
<pdfrwt beam="2">  1       21 0.14588859E-02 0.12500000E+03</pdfrwt>
<totfact> 0.53317462E+06</totfact>
</mgrwt>
</event>
<event>
 6      0 +4.1053447e-01 1.25000000e+02 7.54677100e-03 1.12640300e-01
       21 -1    0    0  502  501 +0.0000000000e+00 +0.0000000000e+00 +1.4634612020e+02 1.4634612020e+02 0.0000000000e+00 0.0000e+00 -1.0000e+00
       21 -1    0    0  501  502 -0.0000000000e+00 -0.0000000000e+00 -2.6691858962e+01 2.6691858962e+01 0.0000000000e+00 0.0000e+00 -1.0000e+00
       25  2    1    2    0    0 +0.0000000000e+00 +0.0000000000e+00 +1.1965426124e+02 1.7303797916e+02 1.2500000000e+02 0.0000e+00 0.0000e+00
      -15  1    3    3    0    0 +4.7905804175e+01 +3.4586916865e+01 +3.1733253134e+01 6.7092309362e+01 1.7770000000e+00 0.0000e+00 1.0000e+00
       15  1    3    3    0    0 -4.7905811519e+01 -3.4586901898e+01 +8.7920936277e+01 1.0594559606e+02 1.7770000000e+00 0.0000e+00 1.0000e+00
       22  1    3    3    0    0 +7.3433765203e-06 -1.4967476387e-05 +7.1834075563e-05 7.3743372178e-05 0.0000000000e+00 0.0000e+00 1.0000e+00
<mgrwt>
<rscale>  2 0.12500000E+03</rscale>
<asrwt>0</asrwt>
<pdfrwt beam="1">  1       21 0.21521488E-01 0.12500000E+03</pdfrwt>
<pdfrwt beam="2">  1       21 0.39252735E-02 0.12500000E+03</pdfrwt>
<totfact> 0.80884840E+06</totfact>
</mgrwt>
</event>
<event>
 6      0 +4.1053447e-01 1.25000000e+02 7.54677100e-03 1.12640300e-01
       21 -1    0    0  502  501 +0.0000000000e+00 +0.0000000000e+00 +2.4375191846e+01 2.4375191846e+01 0.0000000000e+00 0.0000e+00 -1.0000e+00
       21 -1    0    0  501  502 -0.0000000000e+00 -0.0000000000e+00 -1.6025514895e+02 1.6025514895e+02 0.0000000000e+00 0.0000e+00 -1.0000e+00
       25  2    1    2    0    0 +0.0000000000e+00 +0.0000000000e+00 -1.3587995711e+02 1.8463034080e+02 1.2500000000e+02 0.0000e+00 0.0000e+00
      -15  1    3    3    0    0 +2.5301631722e+01 -4.0565816604e+01 -1.2583713775e+02 1.3462503858e+02 1.7770000000e+00 0.0000e+00 -1.0000e+00
       15  1    3    3    0    0 -2.5494411808e+01 +4.0865375733e+01 -9.1707341575e+00 4.9063265905e+01 1.7770000000e+00 0.0000e+00 -1.0000e+00
       22  1    3    3    0    0 +1.9278008644e-01 -2.9955912925e-01 -8.7208520138e-01 9.4203632208e-01 0.0000000000e+00 0.0000e+00 1.0000e+00
<mgrwt>
<rscale>  2 0.12500000E+03</rscale>
<asrwt>0</asrwt>
<pdfrwt beam="1">  1       21 0.35845868E-02 0.12500000E+03</pdfrwt>
<pdfrwt beam="2">  1       21 0.23566935E-01 0.12500000E+03</pdfrwt>
<totfact> 0.79102833E+06</totfact>
</mgrwt>
</event>
<event>
 6      0 +4.1053447e-01 1.25000000e+02 7.54677100e-03 1.12640300e-01
       21 -1    0    0  502  501 +0.0000000000e+00 +0.0000000000e+00 +2.4746739060e+01 2.4746739060e+01 0.0000000000e+00 0.0000e+00 1.0000e+00
       21 -1    0    0  501  502 -0.0000000000e+00 -0.0000000000e+00 -1.5784908026e+02 1.5784908026e+02 0.0000000000e+00 0.0000e+00 1.0000e+00
       25  2    1    2    0    0 +0.0000000000e+00 +0.0000000000e+00 -1.3310234120e+02 1.8259581932e+02 1.2500000000e+02 0.0000e+00 0.0000e+00
      -15  1    3    3    0    0 -2.5756610051e+01 -4.1512862400e+01 -9.8136101768e+00 4.9861662424e+01 1.7770000000e+00 0.0000e+00 -1.0000e+00
       15  1    3    3    0    0 +2.5736798292e+01 +4.1596182204e+01 -1.2328764564e+02 1.3264850718e+02 1.7770000000e+00 0.0000e+00 -1.0000e+00
       22  1    3    3    0    0 +1.9811758630e-02 -8.3319804529e-02 -1.0853809658e-03 8.5649714878e-02 0.0000000000e+00 0.0000e+00 -1.0000e+00
<mgrwt>
<rscale>  2 0.12500000E+03</rscale>
<asrwt>0</asrwt>
<pdfrwt beam="1">  1       21 0.36392263E-02 0.12500000E+03</pdfrwt>
<pdfrwt beam="2">  1       21 0.23213100E-01 0.12500000E+03</pdfrwt>
<totfact> 0.79410725E+06</totfact>
</mgrwt>
</event>
<event>
 6      0 +4.1053447e-01 1.25000000e+02 7.54677100e-03 1.12640300e-01
       21 -1    0    0  502  501 +0.0000000000e+00 +0.0000000000e+00 +3.1150074652e+00 3.1150074652e+00 0.0000000000e+00 0.0000e+00 1.0000e+00
       21 -1    0    0  501  502 -0.0000000000e+00 -0.0000000000e+00 -1.2540098358e+03 1.2540098358e+03 0.0000000000e+00 0.0000e+00 1.0000e+00
       25  2    1    2    0    0 +0.0000000000e+00 +0.0000000000e+00 -1.2508948283e+03 1.2571248433e+03 1.2500000000e+02 0.0000e+00 0.0000e+00
      -15  1    3    3    0    0 +5.5062054008e+01 +2.7184433814e+01 -5.0978360160e+02 5.1347181172e+02 1.7770000000e+00 0.0000e+00 1.0000e+00
       15  1    3    3    0    0 -5.5062054001e+01 -2.7184433812e+01 -7.4111121961e+02 7.4365302446e+02 1.7770000000e+00 0.0000e+00 1.0000e+00
       22  1    3    3    0    0 -6.0513866160e-09 -2.3246000136e-09 -1.1065018040e-07 1.1083990919e-07 0.0000000000e+00 0.0000e+00 1.0000e+00
<mgrwt>
<rscale>  2 0.12500000E+03</rscale>
<asrwt>0</asrwt>
<pdfrwt beam="1">  1       21 0.45808846E-03 0.12500000E+03</pdfrwt>
<pdfrwt beam="2">  1       21 0.18441356E+00 0.12500000E+03</pdfrwt>
<totfact> 0.14812163E+06</totfact>
</mgrwt>
</event>
<event>
 6      0 +4.1053447e-01 1.25000000e+02 7.54677100e-03 1.12640300e-01
       21 -1    0    0  502  501 +0.0000000000e+00 +0.0000000000e+00 +4.8801533223e+01 4.8801533223e+01 0.0000000000e+00 0.0000e+00 -1.0000e+00
       21 -1    0    0  501  502 -0.0000000000e+00 -0.0000000000e+00 -8.0043591707e+01 8.0043591707e+01 0.0000000000e+00 0.0000e+00 -1.0000e+00
       25  2    1    2    0    0 +0.0000000000e+00 +0.0000000000e+00 -3.1242058484e+01 1.2884512493e+02 1.2500000000e+02 0.0000e+00 0.0000e+00
      -15  1    3    3    0    0 -1.7702551739e+01 +5.8887983914e+01 -4.2831441026e+00 6.1665857977e+01 1.7770000000e+00 0.0000e+00 1.0000e+00
       15  1    3    3    0    0 +1.7651332070e+01 -5.8854452684e+01 -2.6917358519e+01 6.7105275823e+01 1.7770000000e+00 0.0000e+00 1.0000e+00
       22  1    3    3    0    0 +5.1219668529e-02 -3.3531229881e-02 -4.1555862095e-02 7.3991131198e-02 0.0000000000e+00 0.0000e+00 1.0000e+00
<mgrwt>
<rscale>  2 0.12500000E+03</rscale>
<asrwt>0</asrwt>
<pdfrwt beam="1">  1       21 0.71766962E-02 0.12500000E+03</pdfrwt>
<pdfrwt beam="2">  1       21 0.11771116E-01 0.12500000E+03</pdfrwt>
<totfact> 0.88307173E+06</totfact>
</mgrwt>
</event>
<event>
 6      0 +4.1053447e-01 1.25000000e+02 7.54677100e-03 1.12640300e-01
       21 -1    0    0  502  501 +0.0000000000e+00 +0.0000000000e+00 +6.8527674396e+00 6.8527674396e+00 0.0000000000e+00 0.0000e+00 1.0000e+00
       21 -1    0    0  501  502 -0.0000000000e+00 -0.0000000000e+00 -5.7002518099e+02 5.7002518099e+02 0.0000000000e+00 0.0000e+00 1.0000e+00
       25  2    1    2    0    0 +0.0000000000e+00 +0.0000000000e+00 -5.6317241355e+02 5.7687794843e+02 1.2500000000e+02 0.0000e+00 0.0000e+00
      -15  1    3    3    0    0 -4.9643596603e+00 +6.1884946807e+01 -3.0985105073e+02 3.1601459282e+02 1.7770000000e+00 0.0000e+00 -1.0000e+00
       15  1    3    3    0    0 +4.9435515605e+00 -6.1966218083e+01 -2.5303095972e+02 2.6056107766e+02 1.7770000000e+00 0.0000e+00 -1.0000e+00
       22  1    3    3    0    0 +2.0808099830e-02 +8.1271275923e-02 -2.9040308318e-01 3.0227793176e-01 0.0000000000e+00 0.0000e+00 1.0000e+00
<mgrwt>
<rscale>  2 0.12500000E+03</rscale>
<asrwt>0</asrwt>
<pdfrwt beam="1">  1       21 0.10077597E-02 0.12500000E+03</pdfrwt>
<pdfrwt beam="2">  1       21 0.83827247E-01 0.12500000E+03</pdfrwt>
<totfact> 0.40014723E+06</totfact>
</mgrwt>
</event>
<event>
 6      0 +4.1053447e-01 1.25000000e+02 7.54677100e-03 1.12640300e-01
       21 -1    0    0  502  501 +0.0000000000e+00 +0.0000000000e+00 +1.4004287958e+02 1.4004287958e+02 0.0000000000e+00 0.0000e+00 -1.0000e+00
       21 -1    0    0  501  502 -0.0000000000e+00 -0.0000000000e+00 -2.7893242496e+01 2.7893242496e+01 0.0000000000e+00 0.0000e+00 -1.0000e+00
       25  2    1    2    0    0 +0.0000000000e+00 +0.0000000000e+00 +1.1214963708e+02 1.6793612208e+02 1.2500000000e+02 0.0000e+00 0.0000e+00
      -15  1    3    3    0    0 -5.4545362297e+01 +9.2724087371e+00 +1.7092376154e+01 5.7935146185e+01 1.7770000000e+00 0.0000e+00 1.0000e+00
       15  1    3    3    0    0 +5.4545362286e+01 -9.2724087454e+00 +9.5057260912e+01 1.1000097587e+02 1.7770000000e+00 0.0000e+00 1.0000e+00
       22  1    3    3    0    0 +1.1068727487e-08 +8.3255198091e-09 +5.9530831520e-09 1.5075483651e-08 0.0000000000e+00 0.0000e+00 1.0000e+00
<mgrwt>
<rscale>  2 0.12500000E+03</rscale>
<asrwt>0</asrwt>
<pdfrwt beam="1">  1       21 0.20594541E-01 0.12500000E+03</pdfrwt>
<pdfrwt beam="2">  1       21 0.41019475E-02 0.12500000E+03</pdfrwt>
<totfact> 0.81693211E+06</totfact>
</mgrwt>
</event>
<event>
 6      0 +4.1053447e-01 1.25000000e+02 7.54677100e-03 1.12640300e-01
       21 -1    0    0  502  501 +0.0000000000e+00 +0.0000000000e+00 +1.2126198390e+02 1.2126198390e+02 0.0000000000e+00 0.0000e+00 -1.0000e+00
       21 -1    0    0  501  502 -0.0000000000e+00 -0.0000000000e+00 -3.2213311001e+01 3.2213311001e+01 0.0000000000e+00 0.0000e+00 -1.0000e+00
       25  2    1    2    0    0 +0.0000000000e+00 +0.0000000000e+00 +8.9048672901e+01 1.5347529490e+02 1.2500000000e+02 0.0000e+00 0.0000e+00
      -15  1    3    3    0    0 +2.1313121254e+01 +1.3075655792e+01 +3.0057460830e+01 3.9138607442e+01 1.7770000000e+00 0.0000e+00 -1.0000e+00
       15  1    3    3    0    0 +4.0893182109e+00 +2.2714388376e+01 -1.5513840201e+01 2.7865802150e+01 1.7770000000e+00 0.0000e+00 -1.0000e+00
       22  1    3    3    0    0 -2.5402439465e+01 -3.5790044167e+01 +7.4505052274e+01 8.6470885312e+01 0.0000000000e+00 0.0000e+00 -1.0000e+00
<mgrwt>
<rscale>  2 0.12500000E+03</rscale>
<asrwt>0</asrwt>
<pdfrwt beam="1">  1       21 0.17832645E-01 0.12500000E+03</pdfrwt>
<pdfrwt beam="2">  1       21 0.47372517E-02 0.12500000E+03</pdfrwt>
<totfact> 0.84046806E+06</totfact>
</mgrwt>
</event>
<event>
 6      0 +4.1053447e-01 1.25000000e+02 7.54677100e-03 1.12640300e-01
       21 -1    0    0  502  501 +0.0000000000e+00 +0.0000000000e+00 +1.7301305958e+02 1.7301305958e+02 0.0000000000e+00 0.0000e+00 -1.0000e+00
       21 -1    0    0  501  502 -0.0000000000e+00 -0.0000000000e+00 -2.2577775397e+01 2.2577775397e+01 0.0000000000e+00 0.0000e+00 -1.0000e+00
       25  2    1    2    0    0 +0.0000000000e+00 +0.0000000000e+00 +1.5043528419e+02 1.9559083498e+02 1.2500000000e+02 0.0000e+00 0.0000e+00
      -15  1    3    3    0    0 -4.4196719490e+01 +4.4142999563e+01 +7.6886734132e+01 9.9079170559e+01 1.7770000000e+00 0.0000e+00 1.0000e+00
       15  1    3    3    0    0 +4.4196719488e+01 -4.4142999570e+01 +7.3548550055e+01 9.6511664418e+01 1.7770000000e+00 0.0000e+00 1.0000e+00
       22  1    3    3    0    0 +1.6265485103e-09 +6.4234455113e-09 +7.5350902302e-09 1.0034136588e-08 0.0000000000e+00 0.0000e+00 1.0000e+00
<mgrwt>
<rscale>  2 0.12500000E+03</rscale>
<asrwt>0</asrwt>
<pdfrwt beam="1">  1       21 0.25443096E-01 0.12500000E+03</pdfrwt>
<pdfrwt beam="2">  1       21 0.33202612E-02 0.12500000E+03</pdfrwt>
<totfact> 0.77467179E+06</totfact>
</mgrwt>
</event>
<event>
 6      0 +4.1053447e-01 1.25000000e+02 7.54677100e-03 1.12640300e-01
       21 -1    0    0  502  501 +0.0000000000e+00 +0.0000000000e+00 +6.6107507459e+00 6.6107507459e+00 0.0000000000e+00 0.0000e+00 -1.0000e+00
       21 -1    0    0  501  502 -0.0000000000e+00 -0.0000000000e+00 -5.9089355357e+02 5.9089355357e+02 0.0000000000e+00 0.0000e+00 -1.0000e+00
       25  2    1    2    0    0 +0.0000000000e+00 +0.0000000000e+00 -5.8428280282e+02 5.9750430432e+02 1.2500000000e+02 0.0000e+00 0.0000e+00
      -15  1    3    3    0    0 +5.1523102039e+01 -3.0443129090e+01 -3.7786614958e+02 3.8257992483e+02 1.7770000000e+00 0.0000e+00 1.0000e+00
       15  1    3    3    0    0 -5.1523325956e+01 +3.0443367545e+01 -2.0641472157e+02 2.1492242031e+02 1.7770000000e+00 0.0000e+00 1.0000e+00
       22  1    3    3    0    0 +2.2391698953e-04 -2.3845508391e-04 -1.9314848191e-03 1.9589878130e-03 0.0000000000e+00 0.0000e+00 -1.0000e+00
<mgrwt>
<rscale>  2 0.12500000E+03</rscale>
<asrwt>0</asrwt>
<pdfrwt beam="1">  1       21 0.97216916E-03 0.12500000E+03</pdfrwt>
<pdfrwt beam="2">  1       21 0.86896117E-01 0.12500000E+03</pdfrwt>
<totfact> 0.38684354E+06</totfact>
</mgrwt>
</event>
<event>
 6      0 +4.1053447e-01 1.25000000e+02 7.54677100e-03 1.12640300e-01
       21 -1    0    0  502  501 +0.0000000000e+00 +0.0000000000e+00 +1.4340031744e+02 1.4340031744e+02 0.0000000000e+00 0.0000e+00 1.0000e+00
       21 -1    0    0  501  502 -0.0000000000e+00 -0.0000000000e+00 -2.7240176799e+01 2.7240176799e+01 0.0000000000e+00 0.0000e+00 1.0000e+00
       25  2    1    2    0    0 +0.0000000000e+00 +0.0000000000e+00 +1.1616014064e+02 1.7064049424e+02 1.2500000000e+02 0.0000e+00 0.0000e+00
      -15  1    3    3    0    0 +4.6588025989e+01 -3.7870975695e+01 +3.4566902106e+01 6.9301395482e+01 1.7770000000e+00 0.0000e+00 -1.0000e+00
       15  1    3    3    0    0 -4.1954599274e+01 +3.4839402322e+01 +7.3899934380e+01 9.1860385285e+01 1.7770000000e+00 0.0000e+00 -1.0000e+00
       22  1    3    3    0    0 -4.6334267152e+00 +3.0315733728e+00 +7.6933041516e+00 9.4787134680e+00 0.0000000000e+00 0.0000e+00 -1.0000e+00
<mgrwt>
<rscale>  2 0.12500000E+03</rscale>
<asrwt>0</asrwt>
<pdfrwt beam="1">  1       21 0.21088282E-01 0.12500000E+03</pdfrwt>
<pdfrwt beam="2">  1       21 0.40059084E-02 0.12500000E+03</pdfrwt>
<totfact> 0.81262662E+06</totfact>
</mgrwt>
</event>
<event>
 6      0 +4.1053447e-01 1.25000000e+02 7.54677100e-03 1.12640300e-01
       21 -1    0    0  502  501 +0.0000000000e+00 +0.0000000000e+00 +8.2851496584e+00 8.2851496584e+00 0.0000000000e+00 0.0000e+00 -1.0000e+00
       21 -1    0    0  501  502 -0.0000000000e+00 -0.0000000000e+00 -4.7147609410e+02 4.7147609410e+02 0.0000000000e+00 0.0000e+00 -1.0000e+00
       25  2    1    2    0    0 +0.0000000000e+00 +0.0000000000e+00 -4.6319094445e+02 4.7976124376e+02 1.2500000000e+02 0.0000e+00 0.0000e+00
      -15  1    3    3    0    0 -1.7139111759e+00 -3.9161006664e+01 -4.1830859126e+02 4.2014492402e+02 1.7770000000e+00 0.0000e+00 1.0000e+00
       15  1    3    3    0    0 +1.7139108907e+00 +3.9161006482e+01 -4.4882342937e+01 5.9616309479e+01 1.7770000000e+00 0.0000e+00 1.0000e+00
       22  1    3    3    0    0 +2.8526127409e-07 +1.8107496466e-07 -1.0351790713e-05 1.0357303370e-05 0.0000000000e+00 0.0000e+00 1.0000e+00
<mgrwt>
<rscale>  2 0.12500000E+03</rscale>
<asrwt>0</asrwt>
<pdfrwt beam="1">  1       21 0.12184042E-02 0.12500000E+03</pdfrwt>
<pdfrwt beam="2">  1       21 0.69334731E-01 0.12500000E+03</pdfrwt>
<totfact> 0.46870671E+06</totfact>
</mgrwt>
</event>
<event>
 6      0 +4.1053447e-01 1.25000000e+02 7.54677100e-03 1.12640300e-01
       21 -1    0    0  502  501 +0.0000000000e+00 +0.0000000000e+00 +1.9129798431e+01 1.9129798431e+01 0.0000000000e+00 0.0000e+00 -1.0000e+00
       21 -1    0    0  501  502 -0.0000000000e+00 -0.0000000000e+00 -2.0419713328e+02 2.0419713328e+02 0.0000000000e+00 0.0000e+00 -1.0000e+00
       25  2    1    2    0    0 +0.0000000000e+00 +0.0000000000e+00 -1.8506733485e+02 2.2332693171e+02 1.2500000000e+02 0.0000e+00 0.0000e+00
      -15  1    3    3    0    0 -4.1271690175e+00 +4.8842983236e+01 -2.3860718202e+01 5.4545046866e+01 1.7770000000e+00 0.0000e+00 -1.0000e+00
       15  1    3    3    0    0 +3.6946971071e+00 -4.8305083152e+01 -1.6086626364e+02 1.6801233393e+02 1.7770000000e+00 0.0000e+00 -1.0000e+00
       22  1    3    3    0    0 +4.3247191043e-01 -5.3790008436e-01 -3.4035301589e-01 7.6955092716e-01 0.0000000000e+00 0.0000e+00 -1.0000e+00
<mgrwt>
<rscale>  2 0.12500000E+03</rscale>
<asrwt>0</asrwt>
<pdfrwt beam="1">  1       21 0.28132058E-02 0.12500000E+03</pdfrwt>
<pdfrwt beam="2">  1       21 0.30028989E-01 0.12500000E+03</pdfrwt>
<totfact> 0.73538705E+06</totfact>
</mgrwt>
</event>
<event>
 6      0 +4.1053447e-01 1.25000000e+02 7.54677100e-03 1.12640300e-01
       21 -1    0    0  502  501 +0.0000000000e+00 +0.0000000000e+00 +2.1647730360e+01 2.1647730360e+01 0.0000000000e+00 0.0000e+00 -1.0000e+00
       21 -1    0    0  501  502 -0.0000000000e+00 -0.0000000000e+00 -1.8044616849e+02 1.8044616849e+02 0.0000000000e+00 0.0000e+00 -1.0000e+00
       25  2    1    2    0    0 +0.0000000000e+00 +0.0000000000e+00 -1.5879843813e+02 2.0209389885e+02 1.2500000000e+02 0.0000e+00 0.0000e+00
      -15  1    3    3    0    0 -1.9818546776e+00 -6.1080820676e+01 -9.6426861650e+01 1.1417570573e+02 1.7770000000e+00 0.0000e+00 -1.0000e+00
       15  1    3    3    0    0 +4.6053016565e-01 +6.0108660595e+01 -6.0150234796e+01 8.5055697291e+01 1.7770000000e+00 0.0000e+00 -1.0000e+00
       22  1    3    3    0    0 +1.5213245120e+00 +9.7216008126e-01 -2.2213416848e+00 2.8624958297e+00 0.0000000000e+00 0.0000e+00 -1.0000e+00
<mgrwt>
<rscale>  2 0.12500000E+03</rscale>
<asrwt>0</asrwt>
<pdfrwt beam="1">  1       21 0.31834899E-02 0.12500000E+03</pdfrwt>
<pdfrwt beam="2">  1       21 0.26536200E-01 0.12500000E+03</pdfrwt>
<totfact> 0.76514473E+06</totfact>
</mgrwt>
</event>
<event>
 6      0 +4.1053447e-01 1.25000000e+02 7.54677100e-03 1.12640300e-01
       21 -1    0    0  502  501 +0.0000000000e+00 +0.0000000000e+00 +2.9211240356e+01 2.9211240356e+01 0.0000000000e+00 0.0000e+00 -1.0000e+00
       21 -1    0    0  501  502 -0.0000000000e+00 -0.0000000000e+00 -1.3372420864e+02 1.3372420864e+02 0.0000000000e+00 0.0000e+00 -1.0000e+00
       25  2    1    2    0    0 +0.0000000000e+00 +0.0000000000e+00 -1.0451296828e+02 1.6293544900e+02 1.2500000000e+02 0.0000e+00 0.0000e+00
      -15  1    3    3    0    0 -2.3573584743e+01 -3.7524170400e+01 -1.0965336441e+02 1.1828269238e+02 1.7770000000e+00 0.0000e+00 -1.0000e+00
       15  1    3    3    0    0 +2.3576185040e+01 +3.7518342191e+01 +5.1461252876e+00 4.4644180319e+01 1.7770000000e+00 0.0000e+00 -1.0000e+00
       22  1    3    3    0    0 -2.6002971376e-03 +5.8282086737e-03 -5.7291528239e-03 8.5762902020e-03 0.0000000000e+00 0.0000e+00 1.0000e+00
<mgrwt>
<rscale>  2 0.12500000E+03</rscale>
<asrwt>0</asrwt>
<pdfrwt beam="1">  1       21 0.42957707E-02 0.12500000E+03</pdfrwt>
<pdfrwt beam="2">  1       21 0.19665324E-01 0.12500000E+03</pdfrwt>
<totfact> 0.82501291E+06</totfact>
</mgrwt>
</event>
<event>
 6      0 +4.1053447e-01 1.25000000e+02 7.54677100e-03 1.12640300e-01
       21 -1    0    0  502  501 +0.0000000000e+00 +0.0000000000e+00 +7.0145153090e+01 7.0145153090e+01 0.0000000000e+00 0.0000e+00 -1.0000e+00
       21 -1    0    0  501  502 -0.0000000000e+00 -0.0000000000e+00 -5.5688095726e+01 5.5688095726e+01 0.0000000000e+00 0.0000e+00 -1.0000e+00
       25  2    1    2    0    0 +0.0000000000e+00 +0.0000000000e+00 +1.4457057364e+01 1.2583324882e+02 1.2500000000e+02 0.0000e+00 0.0000e+00
      -15  1    3    3    0    0 +2.1359758500e+01 +1.8085218317e+01 +2.7962244374e+01 3.9602515629e+01 1.7770000000e+00 0.0000e+00 -1.0000e+00
       15  1    3    3    0    0 -3.7791791376e+01 -2.4977058288e+01 -3.5746041847e+01 5.7732228200e+01 1.7770000000e+00 0.0000e+00 -1.0000e+00
       22  1    3    3    0    0 +1.6432032876e+01 +6.8918399710e+00 +2.2240854836e+01 2.8498504987e+01 0.0000000000e+00 0.0000e+00 -1.0000e+00
<mgrwt>
<rscale>  2 0.12500000E+03</rscale>
<asrwt>0</asrwt>
<pdfrwt beam="1">  1       21 0.10315464E-01 0.12500000E+03</pdfrwt>
<pdfrwt beam="2">  1       21 0.81894258E-02 0.12500000E+03</pdfrwt>
<totfact> 0.88842033E+06</totfact>
</mgrwt>
</event>
<event>
 6      0 +4.1053447e-01 1.25000000e+02 7.54677100e-03 1.12640300e-01
       21 -1    0    0  502  501 +0.0000000000e+00 +0.0000000000e+00 +1.2672851471e+02 1.2672851471e+02 0.0000000000e+00 0.0000e+00 1.0000e+00
       21 -1    0    0  501  502 -0.0000000000e+00 -0.0000000000e+00 -3.0823765346e+01 3.0823765346e+01 0.0000000000e+00 0.0000e+00 1.0000e+00
       25  2    1    2    0    0 +0.0000000000e+00 +0.0000000000e+00 +9.5904749360e+01 1.5755228005e+02 1.2500000000e+02 0.0000e+00 0.0000e+00
      -15  1    3    3    0    0 -5.6366972216e+01 -2.3090247884e+01 +6.5292637180e+01 8.9312268492e+01 1.7770000000e+00 0.0000e+00 1.0000e+00
       15  1    3    3    0    0 +5.6390874919e+01 +2.3093015676e+01 +3.0586648842e+01 6.8204977557e+01 1.7770000000e+00 0.0000e+00 1.0000e+00
       22  1    3    3    0    0 -2.3902702630e-02 -2.7677915999e-03 +2.5463340808e-02 3.5034006171e-02 0.0000000000e+00 0.0000e+00 1.0000e+00
<mgrwt>
<rscale>  2 0.12500000E+03</rscale>
<asrwt>0</asrwt>
<pdfrwt beam="1">  1       21 0.18636546E-01 0.12500000E+03</pdfrwt>
<pdfrwt beam="2">  1       21 0.45329067E-02 0.12500000E+03</pdfrwt>
<totfact> 0.83377594E+06</totfact>
</mgrwt>
</event>
<event>
 6      0 +4.1053447e-01 1.25000000e+02 7.54677100e-03 1.12640300e-01
       21 -1    0    0  502  501 +0.0000000000e+00 +0.0000000000e+00 +9.8426903631e+00 9.8426903631e+00 0.0000000000e+00 0.0000e+00 1.0000e+00
       21 -1    0    0  501  502 -0.0000000000e+00 -0.0000000000e+00 -3.9686811795e+02 3.9686811795e+02 0.0000000000e+00 0.0000e+00 1.0000e+00
       25  2    1    2    0    0 +0.0000000000e+00 +0.0000000000e+00 -3.8702542759e+02 4.0671080832e+02 1.2500000000e+02 0.0000e+00 0.0000e+00
      -15  1    3    3    0    0 -5.4628304580e+01 +3.0260907869e+01 -1.8776906352e+02 1.9788974999e+02 1.7770000000e+00 0.0000e+00 1.0000e+00
       15  1    3    3    0    0 +5.4627499354e+01 -3.0260490692e+01 -1.9925258922e+02 2.0881717607e+02 1.7770000000e+00 0.0000e+00 1.0000e+00
       22  1    3    3    0    0 +8.0522595046e-04 -4.1717671332e-04 -3.7748118274e-03 3.8822196710e-03 0.0000000000e+00 0.0000e+00 -1.0000e+00
<mgrwt>
<rscale>  2 0.12500000E+03</rscale>
<asrwt>0</asrwt>
<pdfrwt beam="1">  1       21 0.14474543E-02 0.12500000E+03</pdfrwt>
<pdfrwt beam="2">  1       21 0.58362966E-01 0.12500000E+03</pdfrwt>
<totfact> 0.53040540E+06</totfact>
</mgrwt>
</event>
<event>
 6      0 +4.1053447e-01 1.25000000e+02 7.54677100e-03 1.12640300e-01
       21 -1    0    0  502  501 +0.0000000000e+00 +0.0000000000e+00 +1.0349206010e+01 1.0349206010e+01 0.0000000000e+00 0.0000e+00 1.0000e+00
       21 -1    0    0  501  502 -0.0000000000e+00 -0.0000000000e+00 -3.7744441421e+02 3.7744441421e+02 0.0000000000e+00 0.0000e+00 1.0000e+00
       25  2    1    2    0    0 +0.0000000000e+00 +0.0000000000e+00 -3.6709520820e+02 3.8779362022e+02 1.2500000000e+02 0.0000e+00 0.0000e+00
      -15  1    3    3    0    0 +1.6821601342e+01 -1.9687720433e+01 -3.5993210306e+02 3.6086680250e+02 1.7770000000e+00 0.0000e+00 1.0000e+00
       15  1    3    3    0    0 -1.6821617908e+01 +1.9687740474e+01 -7.1628093289e+00 2.6926520764e+01 1.7770000000e+00 0.0000e+00 1.0000e+00
       22  1    3    3    0    0 +1.6565302400e-05 -2.0040755479e-05 -2.9581267790e-04 2.9695316387e-04 0.0000000000e+00 0.0000e+00 1.0000e+00
<mgrwt>
<rscale>  2 0.12500000E+03</rscale>
<asrwt>0</asrwt>
<pdfrwt beam="1">  1       21 0.15219422E-02 0.12500000E+03</pdfrwt>
<pdfrwt beam="2">  1       21 0.55506526E-01 0.12500000E+03</pdfrwt>
<totfact> 0.54798680E+06</totfact>
</mgrwt>
</event>
<event>
 6      0 +4.1053447e-01 1.25000000e+02 7.54677100e-03 1.12640300e-01
       21 -1    0    0  502  501 +0.0000000000e+00 +0.0000000000e+00 +1.9088002628e+01 1.9088002628e+01 0.0000000000e+00 0.0000e+00 -1.0000e+00
       21 -1    0    0  501  502 -0.0000000000e+00 -0.0000000000e+00 -2.0464425095e+02 2.0464425095e+02 0.0000000000e+00 0.0000e+00 -1.0000e+00
       25  2    1    2    0    0 +0.0000000000e+00 +0.0000000000e+00 -1.8555624833e+02 2.2373225358e+02 1.2500000000e+02 0.0000e+00 0.0000e+00
      -15  1    3    3    0    0 +1.3833024283e+01 +5.3719286049e+01 -4.1337938989e+01 6.9203303269e+01 1.7770000000e+00 0.0000e+00 -1.0000e+00
       15  1    3    3    0    0 -1.3833038058e+01 -5.3719295623e+01 -1.4421821883e+02 1.5452885826e+02 1.7770000000e+00 0.0000e+00 -1.0000e+00
       22  1    3    3    0    0 +1.3774937146e-05 +9.5738646026e-06 -9.0525640059e-05 9.2066819674e-05 0.0000000000e+00 0.0000e+00 -1.0000e+00
<mgrwt>
<rscale>  2 0.12500000E+03</rscale>
<asrwt>0</asrwt>
<pdfrwt beam="1">  1       21 0.28070591E-02 0.12500000E+03</pdfrwt>
<pdfrwt beam="2">  1       21 0.30094744E-01 0.12500000E+03</pdfrwt>
<totfact> 0.73483586E+06</totfact>
</mgrwt>
</event>
<event>
 6      0 +4.1053447e-01 1.25000000e+02 7.54677100e-03 1.12640300e-01
       21 -1    0    0  502  501 +0.0000000000e+00 +0.0000000000e+00 +3.2851076070e+01 3.2851076070e+01 0.0000000000e+00 0.0000e+00 1.0000e+00
       21 -1    0    0  501  502 -0.0000000000e+00 -0.0000000000e+00 -1.1890782487e+02 1.1890782487e+02 0.0000000000e+00 0.0000e+00 1.0000e+00
       25  2    1    2    0    0 +0.0000000000e+00 +0.0000000000e+00 -8.6056748795e+01 1.5175890094e+02 1.2500000000e+02 0.0000e+00 0.0000e+00
      -15  1    3    3    0    0 -1.0094666010e+01 -3.6536389428e+01 -1.0329976917e+02 1.1004912573e+02 1.7770000000e+00 0.0000e+00 -1.0000e+00
       15  1    3    3    0    0 +1.0080308662e+01 +3.6350685538e+01 +1.7262070806e+01 4.1522545433e+01 1.7770000000e+00 0.0000e+00 -1.0000e+00
       22  1    3    3    0    0 +1.4357348012e-02 +1.8570388991e-01 -1.9050427335e-02 1.8722977047e-01 0.0000000000e+00 0.0000e+00 -1.0000e+00
<mgrwt>
<rscale>  2 0.12500000E+03</rscale>
<asrwt>0</asrwt>
<pdfrwt beam="1">  1       21 0.48310408E-02 0.12500000E+03</pdfrwt>
<pdfrwt beam="2">  1       21 0.17486444E-01 0.12500000E+03</pdfrwt>
<totfact> 0.84331544E+06</totfact>
</mgrwt>
</event>
<event>
 6      0 +4.1053447e-01 1.25000000e+02 7.54677100e-03 1.12640300e-01
       21 -1    0    0  502  501 +0.0000000000e+00 +0.0000000000e+00 +2.6773923086e+01 2.6773923086e+01 0.0000000000e+00 0.0000e+00 1.0000e+00
       21 -1    0    0  501  502 -0.0000000000e+00 -0.0000000000e+00 -1.4589755814e+02 1.4589755814e+02 0.0000000000e+00 0.0000e+00 1.0000e+00
       25  2    1    2    0    0 +0.0000000000e+00 +0.0000000000e+00 -1.1912363505e+02 1.7267148122e+02 1.2500000000e+02 0.0000e+00 0.0000e+00
      -15  1    3    3    0    0 -2.8758443344e+01 +5.7036222803e+00 -1.3574913412e+02 1.3889047669e+02 1.7770000000e+00 0.0000e+00 1.0000e+00
       15  1    3    3    0    0 +2.8256652567e+01 -5.6974122735e+00 +1.6509651134e+01 3.3265977071e+01 1.7770000000e+00 0.0000e+00 1.0000e+00
       22  1    3    3    0    0 +5.0179077671e-01 -6.2100068224e-03 +1.1584793379e-01 5.1502746678e-01 0.0000000000e+00 0.0000e+00 -1.0000e+00
<mgrwt>
<rscale>  2 0.12500000E+03</rscale>
<asrwt>0</asrwt>
<pdfrwt beam="1">  1       21 0.39373416E-02 0.12500000E+03</pdfrwt>
<pdfrwt beam="2">  1       21 0.21455523E-01 0.12500000E+03</pdfrwt>
<totfact> 0.80942369E+06</totfact>
</mgrwt>
</event>
<event>
 6      0 +4.1053447e-01 1.25000000e+02 7.54677100e-03 1.12640300e-01
       21 -1    0    0  502  501 +0.0000000000e+00 +0.0000000000e+00 +1.4435181425e+02 1.4435181425e+02 0.0000000000e+00 0.0000e+00 -1.0000e+00
       21 -1    0    0  501  502 -0.0000000000e+00 -0.0000000000e+00 -2.7060622828e+01 2.7060622828e+01 0.0000000000e+00 0.0000e+00 -1.0000e+00
       25  2    1    2    0    0 +0.0000000000e+00 +0.0000000000e+00 +1.1729119142e+02 1.7141243708e+02 1.2500000000e+02 0.0000e+00 0.0000e+00
      -15  1    3    3    0    0 +3.9295897466e+01 -1.5833036836e+01 -4.3184026213e+00 4.2622282240e+01 1.7770000000e+00 0.0000e+00 -1.0000e+00
       15  1    3    3    0    0 -3.9295895064e+01 +1.5833036703e+01 +1.2160959332e+02 1.2879015232e+02 1.7770000000e+00 0.0000e+00 -1.0000e+00
       22  1    3    3    0    0 -2.4018559693e-06 +1.3336690676e-07 +7.2193344982e-07 2.5115506634e-06 0.0000000000e+00 0.0000e+00 -1.0000e+00
<mgrwt>
<rscale>  2 0.12500000E+03</rscale>
<asrwt>0</asrwt>
<pdfrwt beam="1">  1       21 0.21228208E-01 0.12500000E+03</pdfrwt>
<pdfrwt beam="2">  1       21 0.39795034E-02 0.12500000E+03</pdfrwt>
<totfact> 0.81140625E+06</totfact>
</mgrwt>
</event>
<event>
 6      0 +4.1053447e-01 1.25000000e+02 7.54677100e-03 1.12640300e-01
       21 -1    0    0  502  501 +0.0000000000e+00 +0.0000000000e+00 +1.3093314091e+01 1.3093314091e+01 0.0000000000e+00 0.0000e+00 1.0000e+00
       21 -1    0    0  501  502 -0.0000000000e+00 -0.0000000000e+00 -2.9833928773e+02 2.9833928773e+02 0.0000000000e+00 0.0000e+00 1.0000e+00
       25  2    1    2    0    0 +0.0000000000e+00 +0.0000000000e+00 -2.8524597364e+02 3.1143260182e+02 1.2500000000e+02 0.0000e+00 0.0000e+00
      -15  1    3    3    0    0 -2.0591254377e+01 -5.8796562732e+01 -1.5432402985e+02 1.6643346858e+02 1.7770000000e+00 0.0000e+00 1.0000e+00
       15  1    3    3    0    0 +2.0591254376e+01 +5.8796562731e+01 -1.3092194380e+02 1.4499913325e+02 1.7770000000e+00 0.0000e+00 1.0000e+00
       22  1    3    3    0    0 +7.5160642597e-10 +7.2483786521e-10 -3.8054944535e-09 3.9461487790e-09 0.0000000000e+00 0.0000e+00 -1.0000e+00
<mgrwt>
<rscale>  2 0.12500000E+03</rscale>
<asrwt>0</asrwt>
<pdfrwt beam="1">  1       21 0.19254873E-02 0.12500000E+03</pdfrwt>
<pdfrwt beam="2">  1       21 0.43873427E-01 0.12500000E+03</pdfrwt>
<totfact> 0.62654365E+06</totfact>
</mgrwt>
</event>
<event>
 6      0 +4.1053447e-01 1.25000000e+02 7.54677100e-03 1.12640300e-01
       21 -1    0    0  502  501 +0.0000000000e+00 +0.0000000000e+00 +2.2194032615e+02 2.2194032615e+02 0.0000000000e+00 0.0000e+00 1.0000e+00
       21 -1    0    0  501  502 -0.0000000000e+00 -0.0000000000e+00 -1.7600451742e+01 1.7600451742e+01 0.0000000000e+00 0.0000e+00 1.0000e+00
       25  2    1    2    0    0 +0.0000000000e+00 +0.0000000000e+00 +2.0433987441e+02 2.3954077789e+02 1.2500000000e+02 0.0000e+00 0.0000e+00
      -15  1    3    3    0    0 +6.0965830335e+01 -1.2050875675e+01 +8.9894048627e+01 1.0929846193e+02 1.7770000000e+00 0.0000e+00 1.0000e+00
       15  1    3    3    0    0 -6.0965687879e+01 +1.2050851346e+01 +1.1444557099e+02 1.3024202303e+02 1.7770000000e+00 0.0000e+00 1.0000e+00
       22  1    3    3    0    0 -1.4245602046e-04 +2.4329246839e-05 +2.5480746224e-04 2.9293766031e-04 0.0000000000e+00 0.0000e+00 -1.0000e+00
<mgrwt>
<rscale>  2 0.12500000E+03</rscale>
<asrwt>0</asrwt>
<pdfrwt beam="1">  1       21 0.32638282E-01 0.12500000E+03</pdfrwt>
<pdfrwt beam="2">  1       21 0.25883019E-02 0.12500000E+03</pdfrwt>
<totfact> 0.71367237E+06</totfact>
</mgrwt>
</event>
<event>
 6      0 +4.1053447e-01 1.25000000e+02 7.54677100e-03 1.12640300e-01
       21 -1    0    0  502  501 +0.0000000000e+00 +0.0000000000e+00 +2.7512460324e+01 2.7512460324e+01 0.0000000000e+00 0.0000e+00 1.0000e+00
       21 -1    0    0  501  502 -0.0000000000e+00 -0.0000000000e+00 -1.4198112251e+02 1.4198112251e+02 0.0000000000e+00 0.0000e+00 1.0000e+00
       25  2    1    2    0    0 +0.0000000000e+00 +0.0000000000e+00 -1.1446866219e+02 1.6949358284e+02 1.2500000000e+02 0.0000e+00 0.0000e+00
      -15  1    3    3    0    0 -1.7347395598e+01 -4.1123176731e+01 +2.0416351723e+00 4.4714357891e+01 1.7770000000e+00 0.0000e+00 -1.0000e+00
       15  1    3    3    0    0 +1.7347395422e+01 +4.1123167478e+01 -1.1651027300e+02 1.2477919888e+02 1.7770000000e+00 0.0000e+00 -1.0000e+00
       22  1    3    3    0    0 +1.7596695899e-07 +9.2522603674e-06 -2.4363491055e-05 2.6061753254e-05 0.0000000000e+00 0.0000e+00 -1.0000e+00
<mgrwt>
<rscale>  2 0.12500000E+03</rscale>
<asrwt>0</asrwt>
<pdfrwt beam="1">  1       21 0.40459500E-02 0.12500000E+03</pdfrwt>
<pdfrwt beam="2">  1       21 0.20879577E-01 0.12500000E+03</pdfrwt>
<totfact> 0.81444675E+06</totfact>
</mgrwt>
</event>
<event>
 6      0 +4.1053447e-01 1.25000000e+02 7.54677100e-03 1.12640300e-01
       21 -1    0    0  502  501 +0.0000000000e+00 +0.0000000000e+00 +1.8445381762e+03 1.8445381762e+03 0.0000000000e+00 0.0000e+00 -1.0000e+00
       21 -1    0    0  501  502 -0.0000000000e+00 -0.0000000000e+00 -2.1177387654e+00 2.1177387654e+00 0.0000000000e+00 0.0000e+00 -1.0000e+00
       25  2    1    2    0    0 +0.0000000000e+00 +0.0000000000e+00 +1.8424204374e+03 1.8466559150e+03 1.2500000000e+02 0.0000e+00 0.0000e+00
      -15  1    3    3    0    0 +4.0408233272e+01 -4.6556246175e+01 +7.7143638253e+02 7.7389764142e+02 1.7770000000e+00 0.0000e+00 1.0000e+00
       15  1    3    3    0    0 -4.0408231197e+01 +4.6556248903e+01 +1.0709839653e+03 1.0727581839e+03 1.7770000000e+00 0.0000e+00 1.0000e+00
       22  1    3    3    0    0 -2.0747792693e-06 -2.7283392799e-06 +7.4503995393e-05 7.4582798779e-05 0.0000000000e+00 0.0000e+00 1.0000e+00
<mgrwt>
<rscale>  2 0.12500000E+03</rscale>
<asrwt>0</asrwt>
<pdfrwt beam="1">  1       21 0.27125449E+00 0.12500000E+03</pdfrwt>
<pdfrwt beam="2">  1       21 0.31143346E-03 0.12500000E+03</pdfrwt>
<totfact> 0.66215050E+05</totfact>
</mgrwt>
</event>
<event>
 6      0 +4.1053447e-01 1.25000000e+02 7.54677100e-03 1.12640300e-01
       21 -1    0    0  502  501 +0.0000000000e+00 +0.0000000000e+00 +1.6648263592e+02 1.6648263592e+02 0.0000000000e+00 0.0000e+00 -1.0000e+00
       21 -1    0    0  501  502 -0.0000000000e+00 -0.0000000000e+00 -2.3463407931e+01 2.3463407931e+01 0.0000000000e+00 0.0000e+00 -1.0000e+00
       25  2    1    2    0    0 +0.0000000000e+00 +0.0000000000e+00 +1.4301922799e+02 1.8994604385e+02 1.2500000000e+02 0.0000e+00 0.0000e+00
      -15  1    3    3    0    0 -3.3611686472e+01 -8.4552323069e+00 +1.5049583334e+02 1.5444542726e+02 1.7770000000e+00 0.0000e+00 -1.0000e+00
       15  1    3    3    0    0 +3.3611685467e+01 +8.4552318735e+00 -7.4766050452e+00 3.5500615459e+01 1.7770000000e+00 0.0000e+00 -1.0000e+00
       22  1    3    3    0    0 +1.0052046052e-06 +4.3342689026e-07 -2.9847167366e-07 1.1346279159e-06 0.0000000000e+00 0.0000e+00 1.0000e+00
<mgrwt>
<rscale>  2 0.12500000E+03</rscale>
<asrwt>0</asrwt>
<pdfrwt beam="1">  1       21 0.24482740E-01 0.12500000E+03</pdfrwt>
<pdfrwt beam="2">  1       21 0.34505012E-02 0.12500000E+03</pdfrwt>
<totfact> 0.78305658E+06</totfact>
</mgrwt>
</event>
<event>
 6      0 +4.1053447e-01 1.25000000e+02 7.54677100e-03 1.12640300e-01
       21 -1    0    0  502  501 +0.0000000000e+00 +0.0000000000e+00 +5.1434593014e+01 5.1434593014e+01 0.0000000000e+00 0.0000e+00 1.0000e+00
       21 -1    0    0  501  502 -0.0000000000e+00 -0.0000000000e+00 -7.5945968873e+01 7.5945968873e+01 0.0000000000e+00 0.0000e+00 1.0000e+00
       25  2    1    2    0    0 +0.0000000000e+00 +0.0000000000e+00 -2.4511375859e+01 1.2738056189e+02 1.2500000000e+02 0.0000e+00 0.0000e+00
      -15  1    3    3    0    0 -3.3907405437e+01 -3.6930190597e+01 -5.0241477540e+01 7.0999400810e+01 1.7770000000e+00 0.0000e+00 -1.0000e+00
       15  1    3    3    0    0 +3.3907051620e+01 +3.6930613058e+01 +2.5730352026e+01 5.6380555822e+01 1.7770000000e+00 0.0000e+00 -1.0000e+00
       22  1    3    3    0    0 +3.5381702981e-04 -4.2246092455e-04 -2.5034394062e-04 6.0525351049e-04 0.0000000000e+00 0.0000e+00 -1.0000e+00
<mgrwt>
<rscale>  2 0.12500000E+03</rscale>
<asrwt>0</asrwt>
<pdfrwt beam="1">  1       21 0.75639108E-02 0.12500000E+03</pdfrwt>
<pdfrwt beam="2">  1       21 0.11168525E-01 0.12500000E+03</pdfrwt>
<totfact> 0.88566432E+06</totfact>
</mgrwt>
</event>
<event>
 6      0 +4.1053447e-01 1.25000000e+02 7.54677100e-03 1.12640300e-01
       21 -1    0    0  502  501 +0.0000000000e+00 +0.0000000000e+00 +3.5092580688e+01 3.5092580688e+01 0.0000000000e+00 0.0000e+00 -1.0000e+00
       21 -1    0    0  501  502 -0.0000000000e+00 -0.0000000000e+00 -1.1131270267e+02 1.1131270267e+02 0.0000000000e+00 0.0000e+00 -1.0000e+00
       25  2    1    2    0    0 +0.0000000000e+00 +0.0000000000e+00 -7.6220121981e+01 1.4640528336e+02 1.2500000000e+02 0.0000e+00 0.0000e+00
      -15  1    3    3    0    0 -4.1154625834e+01 -3.6033710027e+01 -2.7594784490e+00 5.4798758527e+01 1.7770000000e+00 0.0000e+00 -1.0000e+00
       15  1    3    3    0    0 +4.1154623687e+01 +3.6033709432e+01 -7.3460641187e+01 9.1606521596e+01 1.7770000000e+00 0.0000e+00 -1.0000e+00
       22  1    3    3    0    0 +2.1462193064e-06 +5.9443021421e-07 -2.3428135092e-06 3.2323953548e-06 0.0000000000e+00 0.0000e+00 1.0000e+00
<mgrwt>
<rscale>  2 0.12500000E+03</rscale>
<asrwt>0</asrwt>
<pdfrwt beam="1">  1       21 0.51606737E-02 0.12500000E+03</pdfrwt>
<pdfrwt beam="2">  1       21 0.16369515E-01 0.12500000E+03</pdfrwt>
<totfact> 0.85233505E+06</totfact>
</mgrwt>
</event>
<event>
 6      0 +4.1053447e-01 1.25000000e+02 7.54677100e-03 1.12640300e-01
       21 -1    0    0  502  501 +0.0000000000e+00 +0.0000000000e+00 +1.2193411874e+01 1.2193411874e+01 0.0000000000e+00 0.0000e+00 1.0000e+00
       21 -1    0    0  501  502 -0.0000000000e+00 -0.0000000000e+00 -3.2035742256e+02 3.2035742256e+02 0.0000000000e+00 0.0000e+00 1.0000e+00
       25  2    1    2    0    0 +0.0000000000e+00 +0.0000000000e+00 -3.0816401069e+02 3.3255083443e+02 1.2500000000e+02 0.0000e+00 0.0000e+00
      -15  1    3    3    0    0 +4.0681232002e+01 +4.7391530672e+01 -1.5796957609e+02 1.6987779288e+02 1.7770000000e+00 0.0000e+00 1.0000e+00
       15  1    3    3    0    0 -4.0681535104e+01 -4.7391616082e+01 -1.5019352135e+02 1.6267207553e+02 1.7770000000e+00 0.0000e+00 1.0000e+00
       22  1    3    3    0    0 +3.0310266928e-04 +8.5409815618e-05 -9.1329579253e-04 9.6606173167e-04 0.0000000000e+00 0.0000e+00 1.0000e+00
<mgrwt>
<rscale>  2 0.12500000E+03</rscale>
<asrwt>0</asrwt>
<pdfrwt beam="1">  1       21 0.17931489E-02 0.12500000E+03</pdfrwt>
<pdfrwt beam="2">  1       21 0.47111382E-01 0.12500000E+03</pdfrwt>
<totfact> 0.60350943E+06</totfact>
</mgrwt>
</event>
<event>
 6      0 +4.1053447e-01 1.25000000e+02 7.54677100e-03 1.12640300e-01
       21 -1    0    0  502  501 +0.0000000000e+00 +0.0000000000e+00 +4.3907868348e+01 4.3907868348e+01 0.0000000000e+00 0.0000e+00 1.0000e+00
       21 -1    0    0  501  502 -0.0000000000e+00 -0.0000000000e+00 -8.8964692365e+01 8.8964692365e+01 0.0000000000e+00 0.0000e+00 1.0000e+00
       25  2    1    2    0    0 +0.0000000000e+00 +0.0000000000e+00 -4.5056824017e+01 1.3287256071e+02 1.2500000000e+02 0.0000e+00 0.0000e+00
      -15  1    3    3    0    0 +6.1373469708e+01 +3.0775725228e+00 -1.0553099787e+01 6.2375474994e+01 1.7770000000e+00 0.0000e+00 -1.0000e+00
       15  1    3    3    0    0 -6.1373469987e+01 -3.0775717028e+00 -3.4503723323e+01 7.0497084464e+01 1.7770000000e+00 0.0000e+00 -1.0000e+00
       22  1    3    3    0    0 +2.7923553558e-07 -8.2004696540e-07 -9.0821077466e-07 1.2551080914e-06 0.0000000000e+00 0.0000e+00 1.0000e+00
<mgrwt>
<rscale>  2 0.12500000E+03</rscale>
<asrwt>0</asrwt>
<pdfrwt beam="1">  1       21 0.64570395E-02 0.12500000E+03</pdfrwt>
<pdfrwt beam="2">  1       21 0.13083043E-01 0.12500000E+03</pdfrwt>
<totfact> 0.87580681E+06</totfact>
</mgrwt>
</event>
<event>
 6      0 +4.1053447e-01 1.25000000e+02 7.54677100e-03 1.12640300e-01
       21 -1    0    0  502  501 +0.0000000000e+00 +0.0000000000e+00 +1.0661623278e+03 1.0661623278e+03 0.0000000000e+00 0.0000e+00 1.0000e+00
       21 -1    0    0  501  502 -0.0000000000e+00 -0.0000000000e+00 -3.6638417043e+00 3.6638417043e+00 0.0000000000e+00 0.0000e+00 1.0000e+00
       25  2    1    2    0    0 +0.0000000000e+00 +0.0000000000e+00 +1.0624984861e+03 1.0698261695e+03 1.2500000000e+02 0.0000e+00 0.0000e+00
      -15  1    3    3    0    0 -6.8886417122e+00 -6.1550806982e+01 +4.6112239531e+02 4.6526656490e+02 1.7770000000e+00 0.0000e+00 1.0000e+00
       15  1    3    3    0    0 +6.8886417115e+00 +6.1550806955e+01 +6.0137609107e+02 6.0455960489e+02 1.7770000000e+00 0.0000e+00 1.0000e+00
       22  1    3    3    0    0 +7.2973174436e-10 +2.6573644969e-08 +3.2153016971e-07 3.2262724800e-07 0.0000000000e+00 0.0000e+00 1.0000e+00
<mgrwt>
<rscale>  2 0.12500000E+03</rscale>
<asrwt>0</asrwt>
<pdfrwt beam="1">  1       21 0.15678836E+00 0.12500000E+03</pdfrwt>
<pdfrwt beam="2">  1       21 0.53880099E-03 0.12500000E+03</pdfrwt>
<totfact> 0.19199394E+06</totfact>
</mgrwt>
</event>
<event>
 6      0 +4.1053447e-01 1.25000000e+02 7.54677100e-03 1.12640300e-01
       21 -1    0    0  502  501 +0.0000000000e+00 +0.0000000000e+00 +1.7013682065e+02 1.7013682065e+02 0.0000000000e+00 0.0000e+00 1.0000e+00
       21 -1    0    0  501  502 -0.0000000000e+00 -0.0000000000e+00 -2.2959462773e+01 2.2959462773e+01 0.0000000000e+00 0.0000e+00 1.0000e+00
       25  2    1    2    0    0 +0.0000000000e+00 +0.0000000000e+00 +1.4717735788e+02 1.9309628342e+02 1.2500000000e+02 0.0000e+00 0.0000e+00
      -15  1    3    3    0    0 -5.0828766383e+01 -1.3570398871e+01 +5.5380470140e+01 7.6405977642e+01 1.7770000000e+00 0.0000e+00 1.0000e+00
       15  1    3    3    0    0 +6.0595375319e+01 +1.3864133404e+01 +8.1183776977e+01 1.0226425122e+02 1.7770000000e+00 0.0000e+00 1.0000e+00
       22  1    3    3    0    0 -9.7666089362e+00 -2.9373453281e-01 +1.0613110772e+01 1.4426054566e+01 0.0000000000e+00 0.0000e+00 1.0000e+00
<mgrwt>
<rscale>  2 0.12500000E+03</rscale>
<asrwt>0</asrwt>
<pdfrwt beam="1">  1       21 0.25020120E-01 0.12500000E+03</pdfrwt>
<pdfrwt beam="2">  1       21 0.33763917E-02 0.12500000E+03</pdfrwt>
<totfact> 0.77836774E+06</totfact>
</mgrwt>
</event>
<event>
 6      0 +4.1053447e-01 1.25000000e+02 7.54677100e-03 1.12640300e-01
       21 -1    0    0  502  501 +0.0000000000e+00 +0.0000000000e+00 +5.0062369656e+00 5.0062369656e+00 0.0000000000e+00 0.0000e+00 1.0000e+00
       21 -1    0    0  501  502 -0.0000000000e+00 -0.0000000000e+00 -7.8027668823e+02 7.8027668823e+02 0.0000000000e+00 0.0000e+00 1.0000e+00
       25  2    1    2    0    0 +0.0000000000e+00 +0.0000000000e+00 -7.7527045126e+02 7.8528292520e+02 1.2500000000e+02 0.0000e+00 0.0000e+00
      -15  1    3    3    0    0 +4.7064500314e+01 -4.0923598707e+01 -4.1053245958e+02 4.1524675341e+02 1.7770000000e+00 0.0000e+00 1.0000e+00
       15  1    3    3    0    0 -4.7064500187e+01 +4.0923598630e+01 -3.6473799038e+02 3.7003617047e+02 1.7770000000e+00 0.0000e+00 1.0000e+00
       22  1    3    3    0    0 -1.2657837017e-07 +7.7616261266e-08 -9.6873525861e-07 9.8004814631e-07 0.0000000000e+00 0.0000e+00 -1.0000e+00
<mgrwt>
<rscale>  2 0.12500000E+03</rscale>
<asrwt>0</asrwt>
<pdfrwt beam="1">  1       21 0.73621114E-03 0.12500000E+03</pdfrwt>
<pdfrwt beam="2">  1       21 0.11474660E+00 0.12500000E+03</pdfrwt>
<totfact> 0.28912025E+06</totfact>
</mgrwt>
</event>
<event>
 6      0 +4.1053447e-01 1.25000000e+02 7.54677100e-03 1.12640300e-01
       21 -1    0    0  502  501 +0.0000000000e+00 +0.0000000000e+00 +4.7967520496e+00 4.7967520496e+00 0.0000000000e+00 0.0000e+00 1.0000e+00
       21 -1    0    0  501  502 -0.0000000000e+00 -0.0000000000e+00 -8.1435312053e+02 8.1435312053e+02 0.0000000000e+00 0.0000e+00 1.0000e+00
       25  2    1    2    0    0 +0.0000000000e+00 +0.0000000000e+00 -8.0955636848e+02 8.1914987258e+02 1.2500000000e+02 0.0000e+00 0.0000e+00
      -15  1    3    3    0    0 +3.2408465348e+01 -3.1148438553e+01 -1.2050199108e+02 1.2862511977e+02 1.7770000000e+00 0.0000e+00 -1.0000e+00
       15  1    3    3    0    0 -1.5846023301e+01 +1.4703684937e+01 -3.3887725421e+02 3.3957067888e+02 1.7770000000e+00 0.0000e+00 1.0000e+00
       22  1    3    3    0    0 -1.6562442048e+01 +1.6444753615e+01 -3.5017712315e+02 3.5095407390e+02 0.0000000000e+00 0.0000e+00 -1.0000e+00
<mgrwt>
<rscale>  2 0.12500000E+03</rscale>
<asrwt>0</asrwt>
<pdfrwt beam="1">  1       21 0.70540550E-03 0.12500000E+03</pdfrwt>
<pdfrwt beam="2">  1       21 0.11975768E+00 0.12500000E+03</pdfrwt>
<totfact> 0.27494644E+06</totfact>
</mgrwt>
</event>
<event>
 6      0 +4.1053447e-01 1.25000000e+02 7.54677100e-03 1.12640300e-01
       21 -1    0    0  502  501 +0.0000000000e+00 +0.0000000000e+00 +2.3949291778e+02 2.3949291778e+02 0.0000000000e+00 0.0000e+00 1.0000e+00
       21 -1    0    0  501  502 -0.0000000000e+00 -0.0000000000e+00 -1.6310503192e+01 1.6310503192e+01 0.0000000000e+00 0.0000e+00 1.0000e+00
       25  2    1    2    0    0 +0.0000000000e+00 +0.0000000000e+00 +2.2318241459e+02 2.5580342098e+02 1.2500000000e+02 0.0000e+00 0.0000e+00
      -15  1    3    3    0    0 +4.8573773311e+00 -2.4890296981e+01 +1.1016815819e+02 1.1306326462e+02 1.7770000000e+00 0.0000e+00 -1.0000e+00
       15  1    3    3    0    0 -2.2164133922e+01 +2.4630201207e+01 +1.1967807476e+02 1.2419297464e+02 1.7770000000e+00 0.0000e+00 -1.0000e+00
       22  1    3    3    0    0 +1.7306756590e+01 +2.6009577412e-01 -6.6638183783e+00 1.8547181694e+01 0.0000000000e+00 0.0000e+00 -1.0000e+00
<mgrwt>
<rscale>  2 0.12500000E+03</rscale>
<asrwt>0</asrwt>
<pdfrwt beam="1">  1       21 0.35219545E-01 0.12500000E+03</pdfrwt>
<pdfrwt beam="2">  1       21 0.23986036E-02 0.12500000E+03</pdfrwt>
<totfact> 0.69262920E+06</totfact>
</mgrwt>
</event>
<event>
 6      0 +4.1053447e-01 1.25000000e+02 7.54677100e-03 1.12640300e-01
       21 -1    0    0  502  501 +0.0000000000e+00 +0.0000000000e+00 +8.9336193225e+01 8.9336193225e+01 0.0000000000e+00 0.0000e+00 -1.0000e+00
       21 -1    0    0  501  502 -0.0000000000e+00 -0.0000000000e+00 -4.3725279296e+01 4.3725279296e+01 0.0000000000e+00 0.0000e+00 -1.0000e+00
       25  2    1    2    0    0 +0.0000000000e+00 +0.0000000000e+00 +4.5610913928e+01 1.3306147252e+02 1.2500000000e+02 0.0000e+00 0.0000e+00
      -15  1    3    3    0    0 -5.2617562428e+01 +3.3483846949e+01 +2.6689606139e+01 6.7862129994e+01 1.7770000000e+00 0.0000e+00 -1.0000e+00
       15  1    3    3    0    0 +5.2617225897e+01 -3.3483817464e+01 +1.8921204897e+01 6.5198989385e+01 1.7770000000e+00 0.0000e+00 -1.0000e+00
       22  1    3    3    0    0 +3.3653095100e-04 -2.9485468914e-05 +1.0289223705e-04 3.5314202002e-04 0.0000000000e+00 0.0000e+00 1.0000e+00
<mgrwt>
<rscale>  2 0.12500000E+03</rscale>
<asrwt>0</asrwt>
<pdfrwt beam="1">  1       21 0.13137675E-01 0.12500000E+03</pdfrwt>
<pdfrwt beam="2">  1       21 0.64301881E-02 0.12500000E+03</pdfrwt>
<totfact> 0.87547161E+06</totfact>
</mgrwt>
</event>
<event>
 6      0 +4.1053447e-01 1.25000000e+02 7.54677100e-03 1.12640300e-01
       21 -1    0    0  502  501 +0.0000000000e+00 +0.0000000000e+00 +4.9377225063e+01 4.9377225063e+01 0.0000000000e+00 0.0000e+00 1.0000e+00
       21 -1    0    0  501  502 -0.0000000000e+00 -0.0000000000e+00 -7.9110358976e+01 7.9110358976e+01 0.0000000000e+00 0.0000e+00 1.0000e+00
       25  2    1    2    0    0 +0.0000000000e+00 +0.0000000000e+00 -2.9733133913e+01 1.2848758404e+02 1.2500000000e+02 0.0000e+00 0.0000e+00
      -15  1    3    3    0    0 +5.0824161061e+01 -1.6157066905e+01 -4.7540532760e+01 7.1466118844e+01 1.7770000000e+00 0.0000e+00 1.0000e+00
       15  1    3    3    0    0 -5.1114378368e+01 +1.6259285265e+01 +1.8058519706e+01 5.6624304820e+01 1.7770000000e+00 0.0000e+00 1.0000e+00
       22  1    3    3    0    0 +2.9021730698e-01 -1.0221836086e-01 -2.5112085878e-01 3.9716037602e-01 0.0000000000e+00 0.0000e+00 1.0000e+00
<mgrwt>
<rscale>  2 0.12500000E+03</rscale>
<asrwt>0</asrwt>
<pdfrwt beam="1">  1       21 0.72613567E-02 0.12500000E+03</pdfrwt>
<pdfrwt beam="2">  1       21 0.11633876E-01 0.12500000E+03</pdfrwt>
<totfact> 0.88371172E+06</totfact>
</mgrwt>
</event>
<event>
 6      0 +4.1053447e-01 1.25000000e+02 7.54677100e-03 1.12640300e-01
       21 -1    0    0  502  501 +0.0000000000e+00 +0.0000000000e+00 +1.7085655557e+02 1.7085655557e+02 0.0000000000e+00 0.0000e+00 1.0000e+00
       21 -1    0    0  501  502 -0.0000000000e+00 -0.0000000000e+00 -2.2862745811e+01 2.2862745811e+01 0.0000000000e+00 0.0000e+00 1.0000e+00
       25  2    1    2    0    0 +0.0000000000e+00 +0.0000000000e+00 +1.4799380976e+02 1.9371930138e+02 1.2500000000e+02 0.0000e+00 0.0000e+00
      -15  1    3    3    0    0 +4.3580086541e+01 -2.1167898528e+01 +1.3512459523e+02 1.4355876092e+02 1.7770000000e+00 0.0000e+00 -1.0000e+00
       15  1    3    3    0    0 -4.3580090454e+01 +2.1167900754e+01 +1.2869200722e+01 5.0160525939e+01 1.7770000000e+00 0.0000e+00 -1.0000e+00
       22  1    3    3    0    0 +3.9129102266e-06 -2.2262464148e-06 +1.3808566358e-05 1.4523895635e-05 0.0000000000e+00 0.0000e+00 1.0000e+00
<mgrwt>
<rscale>  2 0.12500000E+03</rscale>
<asrwt>0</asrwt>
<pdfrwt beam="1">  1       21 0.25125963E-01 0.12500000E+03</pdfrwt>
<pdfrwt beam="2">  1       21 0.33621686E-02 0.12500000E+03</pdfrwt>
<totfact> 0.77744331E+06</totfact>
</mgrwt>
</event>
<event>
 6      0 +4.1053447e-01 1.25000000e+02 7.54677100e-03 1.12640300e-01
       21 -1    0    0  502  501 +0.0000000000e+00 +0.0000000000e+00 +2.0742195313e+01 2.0742195313e+01 0.0000000000e+00 0.0000e+00 1.0000e+00
       21 -1    0    0  501  502 -0.0000000000e+00 -0.0000000000e+00 -1.8832384620e+02 1.8832384620e+02 0.0000000000e+00 0.0000e+00 1.0000e+00
       25  2    1    2    0    0 +0.0000000000e+00 +0.0000000000e+00 -1.6758165089e+02 2.0906604152e+02 1.2500000000e+02 0.0000e+00 0.0000e+00
      -15  1    3    3    0    0 +2.0088240950e+01 +3.0931501934e+01 +5.2584780659e-01 3.6928708091e+01 1.7770000000e+00 0.0000e+00 1.0000e+00
       15  1    3    3    0    0 -1.9694404209e+01 -3.0665985040e+01 -1.6684555604e+02 1.7078896186e+02 1.7770000000e+00 0.0000e+00 1.0000e+00
       22  1    3    3    0    0 -3.9383674054e-01 -2.6551689347e-01 -1.2619426512e+00 1.3483715563e+00 0.0000000000e+00 0.0000e+00 -1.0000e+00
<mgrwt>
<rscale>  2 0.12500000E+03</rscale>
<asrwt>0</asrwt>
<pdfrwt beam="1">  1       21 0.30503227E-02 0.12500000E+03</pdfrwt>
<pdfrwt beam="2">  1       21 0.27694685E-01 0.12500000E+03</pdfrwt>
<totfact> 0.75516329E+06</totfact>
</mgrwt>
</event>
<event>
 6      0 +4.1053447e-01 1.25000000e+02 7.54677100e-03 1.12640300e-01
       21 -1    0    0  502  501 +0.0000000000e+00 +0.0000000000e+00 +7.8103962309e+01 7.8103962309e+01 0.0000000000e+00 0.0000e+00 1.0000e+00
       21 -1    0    0  501  502 -0.0000000000e+00 -0.0000000000e+00 -5.0013467749e+01 5.0013467749e+01 0.0000000000e+00 0.0000e+00 1.0000e+00
       25  2    1    2    0    0 +0.0000000000e+00 +0.0000000000e+00 +2.8090494560e+01 1.2811743006e+02 1.2500000000e+02 0.0000e+00 0.0000e+00
      -15  1    3    3    0    0 -2.9571580598e+01 -4.9513840944e+01 -1.0143432043e+01 5.8584518149e+01 1.7770000000e+00 0.0000e+00 1.0000e+00
       15  1    3    3    0    0 +2.9590959821e+01 +4.9679706651e+01 +3.8266626612e+01 6.9362746466e+01 1.7770000000e+00 0.0000e+00 1.0000e+00
       22  1    3    3    0    0 -1.9379223196e-02 -1.6586570733e-01 -3.2700009823e-02 1.7016544245e-01 0.0000000000e+00 0.0000e+00 -1.0000e+00
<mgrwt>
<rscale>  2 0.12500000E+03</rscale>
<asrwt>0</asrwt>
<pdfrwt beam="1">  1       21 0.11485877E-01 0.12500000E+03</pdfrwt>
<pdfrwt beam="2">  1       21 0.73549217E-02 0.12500000E+03</pdfrwt>
<totfact> 0.88436937E+06</totfact>
</mgrwt>
</event>
<event>
 6      0 +4.1053447e-01 1.25000000e+02 7.54677100e-03 1.12640300e-01
       21 -1    0    0  502  501 +0.0000000000e+00 +0.0000000000e+00 +3.5373188323e+02 3.5373188323e+02 0.0000000000e+00 0.0000e+00 -1.0000e+00
       21 -1    0    0  501  502 -0.0000000000e+00 -0.0000000000e+00 -1.1042968376e+01 1.1042968376e+01 0.0000000000e+00 0.0000e+00 -1.0000e+00
       25  2    1    2    0    0 +0.0000000000e+00 +0.0000000000e+00 +3.4268891486e+02 3.6477485161e+02 1.2500000000e+02 0.0000e+00 0.0000e+00
      -15  1    3    3    0    0 -5.6235107512e+01 +4.0095427359e+00 +9.2789682574e+01 1.0858888834e+02 1.7770000000e+00 0.0000e+00 1.0000e+00
       15  1    3    3    0    0 +5.6235107354e+01 -4.0095426702e+00 +2.4989923152e+02 2.5618596248e+02 1.7770000000e+00 0.0000e+00 1.0000e+00
       22  1    3    3    0    0 +1.5793439161e-07 -6.5699331223e-08 +7.7707272351e-07 7.9567687650e-07 0.0000000000e+00 0.0000e+00 1.0000e+00
<mgrwt>
<rscale>  2 0.12500000E+03</rscale>
<asrwt>0</asrwt>
<pdfrwt beam="1">  1       21 0.52019387E-01 0.12500000E+03</pdfrwt>
<pdfrwt beam="2">  1       21 0.16239662E-02 0.12500000E+03</pdfrwt>
<totfact> 0.57037449E+06</totfact>
</mgrwt>
</event>
<event>
 6      0 +4.1053447e-01 1.25000000e+02 7.54677100e-03 1.12640300e-01
       21 -1    0    0  502  501 +0.0000000000e+00 +0.0000000000e+00 +3.5718825372e+00 3.5718825372e+00 0.0000000000e+00 0.0000e+00 1.0000e+00
       21 -1    0    0  501  502 -0.0000000000e+00 -0.0000000000e+00 -1.0936109907e+03 1.0936109907e+03 0.0000000000e+00 0.0000e+00 1.0000e+00
       25  2    1    2    0    0 +0.0000000000e+00 +0.0000000000e+00 -1.0900391081e+03 1.0971828732e+03 1.2500000000e+02 0.0000e+00 0.0000e+00
      -15  1    3    3    0    0 -3.0733721943e+01 -2.3509946301e+01 -1.1449853801e+02 1.2087328975e+02 1.7770000000e+00 0.0000e+00 1.0000e+00
       15  1    3    3    0    0 +3.0536844728e+01 +2.3403739769e+01 -9.6870771633e+02 9.6947306890e+02 1.7770000000e+00 0.0000e+00 1.0000e+00
       22  1    3    3    0    0 +1.9687721539e-01 +1.0620653206e-01 -6.8328518022e+00 6.8365125771e+00 0.0000000000e+00 0.0000e+00 -1.0000e+00
<mgrwt>
<rscale>  2 0.12500000E+03</rscale>
<asrwt>0</asrwt>
<pdfrwt beam="1">  1       21 0.52527681E-03 0.12500000E+03</pdfrwt>
<pdfrwt beam="2">  1       21 0.16082515E+00 0.12500000E+03</pdfrwt>
<totfact> 0.18479450E+06</totfact>
</mgrwt>
</event>
<event>
 6      0 +4.1053447e-01 1.25000000e+02 7.54677100e-03 1.12640300e-01
       21 -1    0    0  502  501 +0.0000000000e+00 +0.0000000000e+00 +7.7256484563e+00 7.7256484563e+00 0.0000000000e+00 0.0000e+00 1.0000e+00
       21 -1    0    0  501  502 -0.0000000000e+00 -0.0000000000e+00 -5.0562098730e+02 5.0562098730e+02 0.0000000000e+00 0.0000e+00 1.0000e+00
       25  2    1    2    0    0 +0.0000000000e+00 +0.0000000000e+00 -4.9789533884e+02 5.1334663576e+02 1.2500000000e+02 0.0000e+00 0.0000e+00
      -15  1    3    3    0    0 -3.5963663940e+01 +1.1143640537e+00 -1.1775523194e+02 1.2314251626e+02 1.7770000000e+00 0.0000e+00 1.0000e+00
       15  1    3    3    0    0 +6.1448751426e+01 +5.2536579638e-01 -2.9397025645e+02 3.0032964301e+02 1.7770000000e+00 0.0000e+00 1.0000e+00
       22  1    3    3    0    0 -2.5485087486e+01 -1.6397298501e+00 -8.6169850320e+01 8.9874476368e+01 0.0000000000e+00 0.0000e+00 1.0000e+00
<mgrwt>
<rscale>  2 0.12500000E+03</rscale>
<asrwt>0</asrwt>
<pdfrwt beam="1">  1       21 0.11361247E-02 0.12500000E+03</pdfrwt>
<pdfrwt beam="2">  1       21 0.74356032E-01 0.12500000E+03</pdfrwt>
<totfact> 0.44348072E+06</totfact>
</mgrwt>
</event>
<event>
 6      0 +4.1053447e-01 1.25000000e+02 7.54677100e-03 1.12640300e-01
       21 -1    0    0  502  501 +0.0000000000e+00 +0.0000000000e+00 +2.2090219581e+01 2.2090219581e+01 0.0000000000e+00 0.0000e+00 1.0000e+00
       21 -1    0    0  501  502 -0.0000000000e+00 -0.0000000000e+00 -1.7683165102e+02 1.7683165102e+02 0.0000000000e+00 0.0000e+00 1.0000e+00
       25  2    1    2    0    0 +0.0000000000e+00 +0.0000000000e+00 -1.5474143144e+02 1.9892187060e+02 1.2500000000e+02 0.0000e+00 0.0000e+00
      -15  1    3    3    0    0 -4.1645672315e+01 +1.1370988021e+01 -5.5076897354e+00 4.3556328660e+01 1.7770000000e+00 0.0000e+00 -1.0000e+00
       15  1    3    3    0    0 +4.1648702229e+01 -1.1371468354e+01 -1.4923250981e+02 1.5536223609e+02 1.7770000000e+00 0.0000e+00 -1.0000e+00
       22  1    3    3    0    0 -3.0299135485e-03 +4.8033320860e-04 -1.2318969856e-03 3.3058533371e-03 0.0000000000e+00 0.0000e+00 -1.0000e+00
<mgrwt>
<rscale>  2 0.12500000E+03</rscale>
<asrwt>0</asrwt>
<pdfrwt beam="1">  1       21 0.32485617E-02 0.12500000E+03</pdfrwt>
<pdfrwt beam="2">  1       21 0.26004655E-01 0.12500000E+03</pdfrwt>
<totfact> 0.76976498E+06</totfact>
</mgrwt>
</event>
<event>
 6      0 +4.1053447e-01 1.25000000e+02 7.54677100e-03 1.12640300e-01
       21 -1    0    0  502  501 +0.0000000000e+00 +0.0000000000e+00 +2.0618613332e+02 2.0618613332e+02 0.0000000000e+00 0.0000e+00 1.0000e+00
       21 -1    0    0  501  502 -0.0000000000e+00 -0.0000000000e+00 -1.8945260465e+01 1.8945260465e+01 0.0000000000e+00 0.0000e+00 1.0000e+00
       25  2    1    2    0    0 +0.0000000000e+00 +0.0000000000e+00 +1.8724087285e+02 2.2513139378e+02 1.2500000000e+02 0.0000e+00 0.0000e+00
      -15  1    3    3    0    0 -1.2915042688e+01 +4.0218617610e+00 -1.6213233507e+01 2.1189628816e+01 1.7770000000e+00 0.0000e+00 1.0000e+00
       15  1    3    3    0    0 +1.2993081740e+01 -3.9169019713e+00 +2.0315261502e+02 2.0361312583e+02 1.7770000000e+00 0.0000e+00 1.0000e+00
       22  1    3    3    0    0 -7.8039052493e-02 -1.0495978966e-01 +3.0149134252e-01 3.2863913457e-01 0.0000000000e+00 0.0000e+00 -1.0000e+00
<mgrwt>
<rscale>  2 0.12500000E+03</rscale>
<asrwt>0</asrwt>
<pdfrwt beam="1">  1       21 0.30321489E-01 0.12500000E+03</pdfrwt>
<pdfrwt beam="2">  1       21 0.27860678E-02 0.12500000E+03</pdfrwt>
<totfact> 0.73293749E+06</totfact>
</mgrwt>
</event>
<event>
 6      0 +4.1053447e-01 1.25000000e+02 7.54677100e-03 1.12640300e-01
       21 -1    0    0  502  501 +0.0000000000e+00 +0.0000000000e+00 +2.3884522669e+01 2.3884522669e+01 0.0000000000e+00 0.0000e+00 1.0000e+00
       21 -1    0    0  501  502 -0.0000000000e+00 -0.0000000000e+00 -1.6354733374e+02 1.6354733374e+02 0.0000000000e+00 0.0000e+00 1.0000e+00
       25  2    1    2    0    0 +0.0000000000e+00 +0.0000000000e+00 -1.3966281107e+02 1.8743185640e+02 1.2500000000e+02 0.0000e+00 0.0000e+00
      -15  1    3    3    0    0 -2.2811751805e+01 -2.2014971170e+01 +1.0849541820e+01 3.3554511810e+01 1.7770000000e+00 0.0000e+00 -1.0000e+00
       15  1    3    3    0    0 +2.2622674010e+01 +2.2043540051e+01 -1.5029180699e+02 1.5358544207e+02 1.7770000000e+00 0.0000e+00 -1.0000e+00
       22  1    3    3    0    0 +1.8907779419e-01 -2.8568880718e-02 -2.2054590793e-01 2.9190253631e-01 0.0000000000e+00 0.0000e+00 1.0000e+00
<mgrwt>
<rscale>  2 0.12500000E+03</rscale>
<asrwt>0</asrwt>
<pdfrwt beam="1">  1       21 0.35124298E-02 0.12500000E+03</pdfrwt>
<pdfrwt beam="2">  1       21 0.24051078E-01 0.12500000E+03</pdfrwt>
<totfact> 0.78681690E+06</totfact>
</mgrwt>
</event>
<event>
 6      0 +4.1053447e-01 1.25000000e+02 7.54677100e-03 1.12640300e-01
       21 -1    0    0  502  501 +0.0000000000e+00 +0.0000000000e+00 +4.4837833009e+02 4.4837833009e+02 0.0000000000e+00 0.0000e+00 -1.0000e+00
       21 -1    0    0  501  502 -0.0000000000e+00 -0.0000000000e+00 -8.7119509080e+00 8.7119509080e+00 0.0000000000e+00 0.0000e+00 -1.0000e+00
       25  2    1    2    0    0 +0.0000000000e+00 +0.0000000000e+00 +4.3966637919e+02 4.5709028100e+02 1.2500000000e+02 0.0000e+00 0.0000e+00
      -15  1    3    3    0    0 -9.8011675633e+00 +6.0783667159e+01 +2.5856238687e+02 2.6579763489e+02 1.7770000000e+00 0.0000e+00 -1.0000e+00
       15  1    3    3    0    0 +9.2895280999e+00 -5.7060872081e+01 +1.7011647881e+02 1.7968030651e+02 1.7770000000e+00 0.0000e+00 -1.0000e+00
       22  1    3    3    0    0 +5.1163946344e-01 -3.7227950778e+00 +1.0987513590e+01 1.1612339688e+01 0.0000000000e+00 0.0000e+00 -1.0000e+00
<mgrwt>
<rscale>  2 0.12500000E+03</rscale>
<asrwt>0</asrwt>
<pdfrwt beam="1">  1       21 0.65937974E-01 0.12500000E+03</pdfrwt>
<pdfrwt beam="2">  1       21 0.12811696E-02 0.12500000E+03</pdfrwt>
<totfact> 0.48689984E+06</totfact>
</mgrwt>
</event>
<event>
 6      0 +4.1053447e-01 1.25000000e+02 7.54677100e-03 1.12640300e-01
       21 -1    0    0  502  501 +0.0000000000e+00 +0.0000000000e+00 +1.0613237908e+02 1.0613237908e+02 0.0000000000e+00 0.0000e+00 1.0000e+00
       21 -1    0    0  501  502 -0.0000000000e+00 -0.0000000000e+00 -3.6805450269e+01 3.6805450269e+01 0.0000000000e+00 0.0000e+00 1.0000e+00
       25  2    1    2    0    0 +0.0000000000e+00 +0.0000000000e+00 +6.9326928809e+01 1.4293782935e+02 1.2500000000e+02 0.0000e+00 0.0000e+00
      -15  1    3    3    0    0 -4.0637510213e+01 +1.9130028784e+01 -1.4940379507e+01 4.7368110649e+01 1.7770000000e+00 0.0000e+00 1.0000e+00
       15  1    3    3    0    0 +4.0470157390e+01 -1.8814501694e+01 +8.3022243329e+01 9.4274438368e+01 1.7770000000e+00 0.0000e+00 1.0000e+00
       22  1    3    3    0    0 +1.6735282308e-01 -3.1552708995e-01 +1.2450649842e+00 1.2952803275e+00 0.0000000000e+00 0.0000e+00 1.0000e+00
<mgrwt>
<rscale>  2 0.12500000E+03</rscale>
<asrwt>0</asrwt>
<pdfrwt beam="1">  1       21 0.15607703E-01 0.12500000E+03</pdfrwt>
<pdfrwt beam="2">  1       21 0.54125662E-02 0.12500000E+03</pdfrwt>
<totfact> 0.85830990E+06</totfact>
</mgrwt>
</event>
<event>
 6      0 +4.1053447e-01 1.25000000e+02 7.54677100e-03 1.12640300e-01
       21 -1    0    0  502  501 +0.0000000000e+00 +0.0000000000e+00 +3.5128523582e+02 3.5128523582e+02 0.0000000000e+00 0.0000e+00 1.0000e+00
       21 -1    0    0  501  502 -0.0000000000e+00 -0.0000000000e+00 -1.1119880945e+01 1.1119880945e+01 0.0000000000e+00 0.0000e+00 1.0000e+00
       25  2    1    2    0    0 +0.0000000000e+00 +0.0000000000e+00 +3.4016535487e+02 3.6240511676e+02 1.2500000000e+02 0.0000e+00 0.0000e+00
      -15  1    3    3    0    0 +4.1097435262e+00 -3.3849553228e+01 +3.2185458717e+02 3.2366064830e+02 1.7770000000e+00 0.0000e+00 1.0000e+00
       15  1    3    3    0    0 -4.1100045102e+00 +3.3849058290e+01 +1.8310198186e+01 3.8743670074e+01 1.7770000000e+00 0.0000e+00 1.0000e+00
       22  1    3    3    0    0 +2.6098398846e-04 +4.9493853751e-04 +5.6951524438e-04 7.9838863452e-04 0.0000000000e+00 0.0000e+00 -1.0000e+00
<mgrwt>
<rscale>  2 0.12500000E+03</rscale>
<asrwt>0</asrwt>
<pdfrwt beam="1">  1       21 0.51659586E-01 0.12500000E+03</pdfrwt>
<pdfrwt beam="2">  1       21 0.16352768E-02 0.12500000E+03</pdfrwt>
<totfact> 0.57273770E+06</totfact>
</mgrwt>
</event>
<event>
 6      0 +4.1053447e-01 1.25000000e+02 7.54677100e-03 1.12640300e-01
       21 -1    0    0  502  501 +0.0000000000e+00 +0.0000000000e+00 +8.3357282741e+01 8.3357282741e+01 0.0000000000e+00 0.0000e+00 -1.0000e+00
       21 -1    0    0  501  502 -0.0000000000e+00 -0.0000000000e+00 -4.6861532329e+01 4.6861532329e+01 0.0000000000e+00 0.0000e+00 -1.0000e+00
       25  2    1    2    0    0 +0.0000000000e+00 +0.0000000000e+00 +3.6495750412e+01 1.3021881507e+02 1.2500000000e+02 0.0000e+00 0.0000e+00
      -15  1    3    3    0    0 -1.3546337705e+01 +1.4020440259e+01 +8.0067209269e+01 8.2425674030e+01 1.7770000000e+00 0.0000e+00 -1.0000e+00
       15  1    3    3    0    0 +1.3545874350e+01 -1.4023909015e+01 -4.3584314683e+01 4.7779817405e+01 1.7770000000e+00 0.0000e+00 -1.0000e+00
       22  1    3    3    0    0 +4.6335546810e-04 +3.4687553913e-03 +1.2855825480e-02 1.3323633552e-02 0.0000000000e+00 0.0000e+00 -1.0000e+00
<mgrwt>
<rscale>  2 0.12500000E+03</rscale>
<asrwt>0</asrwt>
<pdfrwt beam="1">  1       21 0.12258424E-01 0.12500000E+03</pdfrwt>
<pdfrwt beam="2">  1       21 0.68914018E-02 0.12500000E+03</pdfrwt>
<totfact> 0.88057995E+06</totfact>
</mgrwt>
</event>
<event>
 6      0 +4.1053447e-01 1.25000000e+02 7.54677100e-03 1.12640300e-01
       21 -1    0    0  502  501 +0.0000000000e+00 +0.0000000000e+00 +1.0422790195e+02 1.0422790195e+02 0.0000000000e+00 0.0000e+00 -1.0000e+00
       21 -1    0    0  501  502 -0.0000000000e+00 -0.0000000000e+00 -3.7477968250e+01 3.7477968250e+01 0.0000000000e+00 0.0000e+00 -1.0000e+00
       25  2    1    2    0    0 +0.0000000000e+00 +0.0000000000e+00 +6.6749933700e+01 1.4170587020e+02 1.2500000000e+02 0.0000e+00 0.0000e+00
      -15  1    3    3    0    0 +5.7265970259e+01 -1.4744304933e+01 +5.6225451600e+01 8.1616450635e+01 1.7770000000e+00 0.0000e+00 1.0000e+00
       15  1    3    3    0    0 -5.7162415515e+01 +1.4718965422e+01 +1.0498888722e+01 5.9979780626e+01 1.7770000000e+00 0.0000e+00 1.0000e+00
       22  1    3    3    0    0 -1.0355474403e-01 +2.5339511213e-02 +2.5593378635e-02 1.0963893865e-01 0.0000000000e+00 0.0000e+00 -1.0000e+00
<mgrwt>
<rscale>  2 0.12500000E+03</rscale>
<asrwt>0</asrwt>
<pdfrwt beam="1">  1       21 0.15327633E-01 0.12500000E+03</pdfrwt>
<pdfrwt beam="2">  1       21 0.55114660E-02 0.12500000E+03</pdfrwt>
<totfact> 0.86044886E+06</totfact>
</mgrwt>
</event>
<event>
 6      0 +4.1053447e-01 1.25000000e+02 7.54677100e-03 1.12640300e-01
       21 -1    0    0  502  501 +0.0000000000e+00 +0.0000000000e+00 +3.4505228597e+01 3.4505228597e+01 0.0000000000e+00 0.0000e+00 1.0000e+00
       21 -1    0    0  501  502 -0.0000000000e+00 -0.0000000000e+00 -1.1320748069e+02 1.1320748069e+02 0.0000000000e+00 0.0000e+00 1.0000e+00
       25  2    1    2    0    0 +0.0000000000e+00 +0.0000000000e+00 -7.8702252091e+01 1.4771270928e+02 1.2500000000e+02 0.0000e+00 0.0000e+00
      -15  1    3    3    0    0 -2.0827044170e+01 +2.1802402143e+01 +2.5308385561e+01 3.9405362792e+01 1.7770000000e+00 0.0000e+00 -1.0000e+00
       15  1    3    3    0    0 +2.0827045152e+01 -2.1802402677e+01 -1.0401063773e+02 1.0830734537e+02 1.7770000000e+00 0.0000e+00 -1.0000e+00
       22  1    3    3    0    0 -9.8246096678e-07 +5.3406210803e-07 +7.2772371802e-08 1.1206014923e-06 0.0000000000e+00 0.0000e+00 -1.0000e+00
<mgrwt>
<rscale>  2 0.12500000E+03</rscale>
<asrwt>0</asrwt>
<pdfrwt beam="1">  1       21 0.50742983E-02 0.12500000E+03</pdfrwt>
<pdfrwt beam="2">  1       21 0.16648159E-01 0.12500000E+03</pdfrwt>
<totfact> 0.85011109E+06</totfact>
</mgrwt>
</event>
<event>
 6      0 +4.1053447e-01 1.25000000e+02 7.54677100e-03 1.12640300e-01
       21 -1    0    0  502  501 +0.0000000000e+00 +0.0000000000e+00 +1.0062960514e+02 1.0062960514e+02 0.0000000000e+00 0.0000e+00 -1.0000e+00
       21 -1    0    0  501  502 -0.0000000000e+00 -0.0000000000e+00 -3.8818099253e+01 3.8818099253e+01 0.0000000000e+00 0.0000e+00 -1.0000e+00
       25  2    1    2    0    0 +0.0000000000e+00 +0.0000000000e+00 +6.1811505884e+01 1.3944770439e+02 1.2500000000e+02 0.0000e+00 0.0000e+00
      -15  1    3    3    0    0 -4.7941795021e+01 -2.1386961326e+01 +2.9882970530e+01 6.0431510665e+01 1.7770000000e+00 0.0000e+00 -1.0000e+00
       15  1    3    3    0    0 +4.0753368157e+01 +3.0375526438e+01 +4.0212055377e+01 6.4835767514e+01 1.7770000000e+00 0.0000e+00 -1.0000e+00
       22  1    3    3    0    0 +7.1884268640e+00 -8.9885651112e+00 -8.2835200229e+00 1.4180426211e+01 0.0000000000e+00 0.0000e+00 -1.0000e+00
<mgrwt>
<rscale>  2 0.12500000E+03</rscale>
<asrwt>0</asrwt>
<pdfrwt beam="1">  1       21 0.14798471E-01 0.12500000E+03</pdfrwt>
<pdfrwt beam="2">  1       21 0.57085440E-02 0.12500000E+03</pdfrwt>
<totfact> 0.86435741E+06</totfact>
</mgrwt>
</event>
<event>
 6      0 +4.1053447e-01 1.25000000e+02 7.54677100e-03 1.12640300e-01
       21 -1    0    0  502  501 +0.0000000000e+00 +0.0000000000e+00 +2.7660452848e+01 2.7660452848e+01 0.0000000000e+00 0.0000e+00 -1.0000e+00
       21 -1    0    0  501  502 -0.0000000000e+00 -0.0000000000e+00 -1.4122147680e+02 1.4122147680e+02 0.0000000000e+00 0.0000e+00 -1.0000e+00
       25  2    1    2    0    0 +0.0000000000e+00 +0.0000000000e+00 -1.1356102395e+02 1.6888192964e+02 1.2500000000e+02 0.0000e+00 0.0000e+00
      -15  1    3    3    0    0 -4.7798397379e+01 +4.0154237226e+01 -6.0082844686e+01 8.6661153430e+01 1.7770000000e+00 0.0000e+00 -1.0000e+00
       15  1    3    3    0    0 +4.7781256508e+01 -4.0142363936e+01 -5.3451039905e+01 8.2186551526e+01 1.7770000000e+00 0.0000e+00 -1.0000e+00
       22  1    3    3    0    0 +1.7140871541e-02 -1.1873290000e-02 -2.7139365583e-02 3.4224693671e-02 0.0000000000e+00 0.0000e+00 1.0000e+00
<mgrwt>
<rscale>  2 0.12500000E+03</rscale>
<asrwt>0</asrwt>
<pdfrwt beam="1">  1       21 0.40677137E-02 0.12500000E+03</pdfrwt>
<pdfrwt beam="2">  1       21 0.20767864E-01 0.12500000E+03</pdfrwt>
<totfact> 0.81542090E+06</totfact>
</mgrwt>
</event>
<event>
 6      0 +4.1053447e-01 1.25000000e+02 7.54677100e-03 1.12640300e-01
       21 -1    0    0  502  501 +0.0000000000e+00 +0.0000000000e+00 +2.9402792643e+02 2.9402792643e+02 0.0000000000e+00 0.0000e+00 -1.0000e+00
       21 -1    0    0  501  502 -0.0000000000e+00 -0.0000000000e+00 -1.3285302683e+01 1.3285302683e+01 0.0000000000e+00 0.0000e+00 -1.0000e+00
       25  2    1    2    0    0 +0.0000000000e+00 +0.0000000000e+00 +2.8074262375e+02 3.0731322911e+02 1.2500000000e+02 0.0000e+00 0.0000e+00
      -15  1    3    3    0    0 +1.3151622035e+01 -4.9277737235e+01 +2.2894188095e+02 2.3456087298e+02 1.7770000000e+00 0.0000e+00 1.0000e+00
       15  1    3    3    0    0 -1.2288607547e+01 +4.7385447818e+01 +4.9278638661e+01 6.9483325321e+01 1.7770000000e+00 0.0000e+00 1.0000e+00
       22  1    3    3    0    0 -8.6301448771e-01 +1.8922894168e+00 +2.5221041715e+00 3.2690308495e+00 0.0000000000e+00 0.0000e+00 1.0000e+00
<mgrwt>
<rscale>  2 0.12500000E+03</rscale>
<asrwt>0</asrwt>
<pdfrwt beam="1">  1       21 0.43239397E-01 0.12500000E+03</pdfrwt>
<pdfrwt beam="2">  1       21 0.19537212E-02 0.12500000E+03</pdfrwt>
<totfact> 0.63117143E+06</totfact>
</mgrwt>
</event>
<event>
 6      0 +4.1053447e-01 1.25000000e+02 7.54677100e-03 1.12640300e-01
       21 -1    0    0  502  501 +0.0000000000e+00 +0.0000000000e+00 +3.5348416582e+01 3.5348416582e+01 0.0000000000e+00 0.0000e+00 1.0000e+00
       21 -1    0    0  501  502 -0.0000000000e+00 -0.0000000000e+00 -1.1050707154e+02 1.1050707154e+02 0.0000000000e+00 0.0000e+00 1.0000e+00
       25  2    1    2    0    0 +0.0000000000e+00 +0.0000000000e+00 -7.5158654957e+01 1.4585548812e+02 1.2500000000e+02 0.0000e+00 0.0000e+00
      -15  1    3    3    0    0 -4.9794142070e+00 +5.9422661540e+01 -5.9322893015e+01 8.4132102286e+01 1.7770000000e+00 0.0000e+00 -1.0000e+00
       15  1    3    3    0    0 +4.9794141979e+00 -5.9422661525e+01 -1.5835761889e+01 6.1723385779e+01 1.7770000000e+00 0.0000e+00 -1.0000e+00
       22  1    3    3    0    0 +9.0748700845e-09 -1.5222353329e-08 -5.2895975353e-08 5.5785818238e-08 0.0000000000e+00 0.0000e+00 1.0000e+00
<mgrwt>
<rscale>  2 0.12500000E+03</rscale>
<asrwt>0</asrwt>
<pdfrwt beam="1">  1       21 0.51982965E-02 0.12500000E+03</pdfrwt>
<pdfrwt beam="2">  1       21 0.16251040E-01 0.12500000E+03</pdfrwt>
<totfact> 0.85327478E+06</totfact>
</mgrwt>
</event>
<event>
 6      0 +4.1053447e-01 1.25000000e+02 7.54677100e-03 1.12640300e-01
       21 -1    0    0  502  501 +0.0000000000e+00 +0.0000000000e+00 +6.5109634382e+01 6.5109634382e+01 0.0000000000e+00 0.0000e+00 1.0000e+00
       21 -1    0    0  501  502 -0.0000000000e+00 -0.0000000000e+00 -5.9994961376e+01 5.9994961376e+01 0.0000000000e+00 0.0000e+00 1.0000e+00
       25  2    1    2    0    0 +0.0000000000e+00 +0.0000000000e+00 +5.1146730062e+00 1.2510459576e+02 1.2500000000e+02 0.0000e+00 0.0000e+00
      -15  1    3    3    0    0 -1.2394055158e+01 -5.1684799450e+01 +1.3580769727e+01 5.4886484063e+01 1.7770000000e+00 0.0000e+00 -1.0000e+00
       15  1    3    3    0    0 +1.5379645898e+01 +5.4446435770e+01 -1.8370527835e+01 5.9511191367e+01 1.7770000000e+00 0.0000e+00 -1.0000e+00
       22  1    3    3    0    0 -2.9855907405e+00 -2.7616363194e+00 +9.9044311136e+00 1.0706920328e+01 0.0000000000e+00 0.0000e+00 -1.0000e+00
<mgrwt>
<rscale>  2 0.12500000E+03</rscale>
<asrwt>0</asrwt>
<pdfrwt beam="1">  1       21 0.95749462E-02 0.12500000E+03</pdfrwt>
<pdfrwt beam="2">  1       21 0.88227884E-02 0.12500000E+03</pdfrwt>
<totfact> 0.88980117E+06</totfact>
</mgrwt>
</event>
<event>
 6      0 +4.1053447e-01 1.25000000e+02 7.54677100e-03 1.12640300e-01
       21 -1    0    0  502  501 +0.0000000000e+00 +0.0000000000e+00 +1.4122016072e+02 1.4122016072e+02 0.0000000000e+00 0.0000e+00 1.0000e+00
       21 -1    0    0  501  502 -0.0000000000e+00 -0.0000000000e+00 -2.7660710624e+01 2.7660710624e+01 0.0000000000e+00 0.0000e+00 1.0000e+00
       25  2    1    2    0    0 +0.0000000000e+00 +0.0000000000e+00 +1.1355945010e+02 1.6888087134e+02 1.2500000000e+02 0.0000e+00 0.0000e+00
      -15  1    3    3    0    0 +4.8215918319e+01 -5.4916414396e+00 +3.6206717514e+00 4.8694967892e+01 1.7770000000e+00 0.0000e+00 1.0000e+00
       15  1    3    3    0    0 -4.8215974801e+01 +5.4916201971e+00 +1.0993880128e+02 1.2018583891e+02 1.7770000000e+00 0.0000e+00 1.0000e+00
       22  1    3    3    0    0 +5.6481633979e-05 +2.1242573177e-05 -2.2923135464e-05 6.4551468090e-05 0.0000000000e+00 0.0000e+00 1.0000e+00
<mgrwt>
<rscale>  2 0.12500000E+03</rscale>
<asrwt>0</asrwt>
<pdfrwt beam="1">  1       21 0.20767670E-01 0.12500000E+03</pdfrwt>
<pdfrwt beam="2">  1       21 0.40677516E-02 0.12500000E+03</pdfrwt>
<totfact> 0.81542259E+06</totfact>
</mgrwt>
</event>
<event>
 6      0 +4.1053447e-01 1.25000000e+02 7.54677100e-03 1.12640300e-01
       21 -1    0    0  502  501 +0.0000000000e+00 +0.0000000000e+00 +7.2893373596e+01 7.2893373596e+01 0.0000000000e+00 0.0000e+00 1.0000e+00
       21 -1    0    0  501  502 -0.0000000000e+00 -0.0000000000e+00 -5.3588547316e+01 5.3588547316e+01 0.0000000000e+00 0.0000e+00 1.0000e+00
       25  2    1    2    0    0 +0.0000000000e+00 +0.0000000000e+00 +1.9304826279e+01 1.2648192091e+02 1.2500000000e+02 0.0000e+00 0.0000e+00
      -15  1    3    3    0    0 -3.1478128021e+01 -5.2113209916e+01 +2.3834024038e+01 6.5405486179e+01 1.7770000000e+00 0.0000e+00 1.0000e+00
       15  1    3    3    0    0 +3.1478128416e+01 +5.2113211220e+01 -4.5291975898e+00 6.1076433360e+01 1.7770000000e+00 0.0000e+00 1.0000e+00
       22  1    3    3    0    0 -3.9448074801e-07 -1.3040221493e-06 -1.6969367177e-07 1.3729110564e-06 0.0000000000e+00 0.0000e+00 1.0000e+00
<mgrwt>
<rscale>  2 0.12500000E+03</rscale>
<asrwt>0</asrwt>
<pdfrwt beam="1">  1       21 0.10719614E-01 0.12500000E+03</pdfrwt>
<pdfrwt beam="2">  1       21 0.78806687E-02 0.12500000E+03</pdfrwt>
<totfact> 0.88725310E+06</totfact>
</mgrwt>
</event>
<event>
 6      0 +4.1053447e-01 1.25000000e+02 7.54677100e-03 1.12640300e-01
       21 -1    0    0  502  501 +0.0000000000e+00 +0.0000000000e+00 +6.2104169847e+00 6.2104169847e+00 0.0000000000e+00 0.0000e+00 -1.0000e+00
       21 -1    0    0  501  502 -0.0000000000e+00 -0.0000000000e+00 -6.2898353035e+02 6.2898353035e+02 0.0000000000e+00 0.0000e+00 -1.0000e+00
       25  2    1    2    0    0 +0.0000000000e+00 +0.0000000000e+00 -6.2277311337e+02 6.3519394734e+02 1.2500000000e+02 0.0000e+00 0.0000e+00
      -15  1    3    3    0    0 -5.4990299645e+01 -2.5337859560e+00 -1.6126722764e+02 1.7041311442e+02 1.7770000000e+00 0.0000e+00 -1.0000e+00
       15  1    3    3    0    0 +5.4854906002e+01 +2.5246719434e+00 -4.6042371735e+02 4.6369018958e+02 1.7770000000e+00 0.0000e+00 -1.0000e+00
       22  1    3    3    0    0 +1.3539364283e-01 +9.1140125216e-03 -1.0821683650e+00 1.0906433303e+00 0.0000000000e+00 0.0000e+00 -1.0000e+00
<mgrwt>
<rscale>  2 0.12500000E+03</rscale>
<asrwt>0</asrwt>
<pdfrwt beam="1">  1       21 0.91329632E-03 0.12500000E+03</pdfrwt>
<pdfrwt beam="2">  1       21 0.92497607E-01 0.12500000E+03</pdfrwt>
<totfact> 0.36383888E+06</totfact>
</mgrwt>
</event>
<event>
 6      0 +4.1053447e-01 1.25000000e+02 7.54677100e-03 1.12640300e-01
       21 -1    0    0  502  501 +0.0000000000e+00 +0.0000000000e+00 +1.7277880374e+02 1.7277880374e+02 0.0000000000e+00 0.0000e+00 1.0000e+00
       21 -1    0    0  501  502 -0.0000000000e+00 -0.0000000000e+00 -2.2608386651e+01 2.2608386651e+01 0.0000000000e+00 0.0000e+00 1.0000e+00
       25  2    1    2    0    0 +0.0000000000e+00 +0.0000000000e+00 +1.5017041708e+02 1.9538719039e+02 1.2500000000e+02 0.0000e+00 0.0000e+00
      -15  1    3    3    0    0 -1.1498494466e+01 +6.1089595641e+01 +6.5331408390e+01 9.0197032778e+01 1.7770000000e+00 0.0000e+00 -1.0000e+00
       15  1    3    3    0    0 +1.1498494596e+01 -6.1089594779e+01 +8.4839008557e+01 1.0519015672e+02 1.7770000000e+00 0.0000e+00 -1.0000e+00
       22  1    3    3    0    0 -1.3013604314e-07 -8.6208367235e-07 +1.2094274554e-07 8.8019929305e-07 0.0000000000e+00 0.0000e+00 1.0000e+00
<mgrwt>
<rscale>  2 0.12500000E+03</rscale>
<asrwt>0</asrwt>
<pdfrwt beam="1">  1       21 0.25408647E-01 0.12500000E+03</pdfrwt>
<pdfrwt beam="2">  1       21 0.33247628E-02 0.12500000E+03</pdfrwt>
<totfact> 0.77497298E+06</totfact>
</mgrwt>
</event>
<event>
 6      0 +4.1053447e-01 1.25000000e+02 7.54677100e-03 1.12640300e-01
       21 -1    0    0  502  501 +0.0000000000e+00 +0.0000000000e+00 +5.0618958955e+01 5.0618958955e+01 0.0000000000e+00 0.0000e+00 -1.0000e+00
       21 -1    0    0  501  502 -0.0000000000e+00 -0.0000000000e+00 -7.7169702432e+01 7.7169702432e+01 0.0000000000e+00 0.0000e+00 -1.0000e+00
       25  2    1    2    0    0 +0.0000000000e+00 +0.0000000000e+00 -2.6550743477e+01 1.2778866139e+02 1.2500000000e+02 0.0000e+00 0.0000e+00
      -15  1    3    3    0    0 +5.7036793882e+01 -2.3995498049e+01 -2.2076288485e+01 6.5722903353e+01 1.7770000000e+00 0.0000e+00 1.0000e+00
       15  1    3    3    0    0 -5.7036658991e+01 +2.3995446000e+01 -4.4744548550e+00 6.2065613450e+01 1.7770000000e+00 0.0000e+00 1.0000e+00
       22  1    3    3    0    0 -1.3489051957e-04 +5.2048559275e-05 -1.3645885377e-07 1.4458396665e-04 0.0000000000e+00 0.0000e+00 1.0000e+00
<mgrwt>
<rscale>  2 0.12500000E+03</rscale>
<asrwt>0</asrwt>
<pdfrwt beam="1">  1       21 0.74439647E-02 0.12500000E+03</pdfrwt>
<pdfrwt beam="2">  1       21 0.11348485E-01 0.12500000E+03</pdfrwt>
<totfact> 0.88494852E+06</totfact>
</mgrwt>
</event>
<event>
 6      0 +4.1053447e-01 1.25000000e+02 7.54677100e-03 1.12640300e-01
       21 -1    0    0  502  501 +0.0000000000e+00 +0.0000000000e+00 +3.2368358938e+03 3.2368358938e+03 0.0000000000e+00 0.0000e+00 -1.0000e+00
       21 -1    0    0  501  502 -0.0000000000e+00 -0.0000000000e+00 -1.2068112589e+00 1.2068112589e+00 0.0000000000e+00 0.0000e+00 -1.0000e+00
       25  2    1    2    0    0 +0.0000000000e+00 +0.0000000000e+00 +3.2356290826e+03 3.2380427051e+03 1.2500000000e+02 0.0000e+00 0.0000e+00
      -15  1    3    3    0    0 -3.1820536058e+01 -3.7843106015e+01 +6.2854716836e+02 6.3049135424e+02 1.7770000000e+00 0.0000e+00 -1.0000e+00
       15  1    3    3    0    0 +3.1716694723e+01 +3.7743798683e+01 +2.6000693767e+03 2.6005373414e+03 1.7770000000e+00 0.0000e+00 -1.0000e+00
       22  1    3    3    0    0 +1.0384133449e-01 +9.9307332033e-02 +7.0125495556e+00 7.0140214027e+00 0.0000000000e+00 0.0000e+00 -1.0000e+00
<mgrwt>
<rscale>  2 0.12500000E+03</rscale>
<asrwt>0</asrwt>
<pdfrwt beam="1">  1       21 0.47599921E+00 0.12500000E+03</pdfrwt>
<pdfrwt beam="2">  1       21 0.17747451E-03 0.12500000E+03</pdfrwt>
<totfact> 0.91445144E+04</totfact>
</mgrwt>
</event>
<event>
 6      0 +4.1053447e-01 1.25000000e+02 7.54677100e-03 1.12640300e-01
       21 -1    0    0  502  501 +0.0000000000e+00 +0.0000000000e+00 +6.0247523839e+01 6.0247523839e+01 0.0000000000e+00 0.0000e+00 -1.0000e+00
       21 -1    0    0  501  502 -0.0000000000e+00 -0.0000000000e+00 -6.4836689562e+01 6.4836689562e+01 0.0000000000e+00 0.0000e+00 -1.0000e+00
       25  2    1    2    0    0 +0.0000000000e+00 +0.0000000000e+00 -4.5891657230e+00 1.2508421340e+02 1.2500000000e+02 0.0000e+00 0.0000e+00
      -15  1    3    3    0    0 +5.0416577832e+01 +1.8438651064e+01 -3.4273512036e+01 6.3715355524e+01 1.7770000000e+00 0.0000e+00 -1.0000e+00
       15  1    3    3    0    0 -5.0416593028e+01 -1.8438654443e+01 +2.9684332167e+01 6.1368836842e+01 1.7770000000e+00 0.0000e+00 -1.0000e+00
       22  1    3    3    0    0 +1.5195598391e-05 +3.3790968019e-06 +1.4145714657e-05 2.1033919008e-05 0.0000000000e+00 0.0000e+00 -1.0000e+00
<mgrwt>
<rscale>  2 0.12500000E+03</rscale>
<asrwt>0</asrwt>
<pdfrwt beam="1">  1       21 0.88599300E-02 0.12500000E+03</pdfrwt>
<pdfrwt beam="2">  1       21 0.95348072E-02 0.12500000E+03</pdfrwt>
<totfact> 0.88984415E+06</totfact>
</mgrwt>
</event>
<event>
 6      0 +4.1053447e-01 1.25000000e+02 7.54677100e-03 1.12640300e-01
       21 -1    0    0  502  501 +0.0000000000e+00 +0.0000000000e+00 +9.4827707096e+01 9.4827707096e+01 0.0000000000e+00 0.0000e+00 -1.0000e+00
       21 -1    0    0  501  502 -0.0000000000e+00 -0.0000000000e+00 -4.1193129304e+01 4.1193129304e+01 0.0000000000e+00 0.0000e+00 -1.0000e+00
       25  2    1    2    0    0 +0.0000000000e+00 +0.0000000000e+00 +5.3634577793e+01 1.3602083640e+02 1.2500000000e+02 0.0000e+00 0.0000e+00
      -15  1    3    3    0    0 -4.8960554931e+01 -2.7885330287e+01 +3.8510214990e+01 6.8270945298e+01 1.7770000000e+00 0.0000e+00 -1.0000e+00
       15  1    3    3    0    0 +5.1739037727e+01 +3.1846347237e+01 +1.1897076951e+01 6.1933965045e+01 1.7770000000e+00 0.0000e+00 -1.0000e+00
       22  1    3    3    0    0 -2.7784827965e+00 -3.9610169501e+00 +3.2272858521e+00 5.8159260570e+00 0.0000000000e+00 0.0000e+00 1.0000e+00
<mgrwt>
<rscale>  2 0.12500000E+03</rscale>
<asrwt>0</asrwt>
<pdfrwt beam="1">  1       21 0.13945251E-01 0.12500000E+03</pdfrwt>
<pdfrwt beam="2">  1       21 0.60578131E-02 0.12500000E+03</pdfrwt>
<totfact> 0.87027868E+06</totfact>
</mgrwt>
</event>
<event>
 6      0 +4.1053447e-01 1.25000000e+02 7.54677100e-03 1.12640300e-01
       21 -1    0    0  502  501 +0.0000000000e+00 +0.0000000000e+00 +2.8019200337e+01 2.8019200337e+01 0.0000000000e+00 0.0000e+00 -1.0000e+00
       21 -1    0    0  501  502 -0.0000000000e+00 -0.0000000000e+00 -1.3941332918e+02 1.3941332918e+02 0.0000000000e+00 0.0000e+00 -1.0000e+00
       25  2    1    2    0    0 +0.0000000000e+00 +0.0000000000e+00 -1.1139412884e+02 1.6743252952e+02 1.2500000000e+02 0.0000e+00 0.0000e+00
      -15  1    3    3    0    0 +1.8156452896e+01 -1.2077908795e+01 +2.2722121457e+01 3.1543385919e+01 1.7770000000e+00 0.0000e+00 1.0000e+00
       15  1    3    3    0    0 -1.8156452854e+01 +1.2077909176e+01 -1.3411625089e+02 1.3588914288e+02 1.7770000000e+00 0.0000e+00 1.0000e+00
       22  1    3    3    0    0 -4.2577502062e-08 -3.8085624164e-07 +6.0101290173e-07 7.1279788755e-07 0.0000000000e+00 0.0000e+00 -1.0000e+00
<mgrwt>
<rscale>  2 0.12500000E+03</rscale>
<asrwt>0</asrwt>
<pdfrwt beam="1">  1       21 0.41204706E-02 0.12500000E+03</pdfrwt>
<pdfrwt beam="2">  1       21 0.20501960E-01 0.12500000E+03</pdfrwt>
<totfact> 0.81773918E+06</totfact>
</mgrwt>
</event>
<event>
 6      0 +4.1053447e-01 1.25000000e+02 7.54677100e-03 1.12640300e-01
       21 -1    0    0  502  501 +0.0000000000e+00 +0.0000000000e+00 +1.0711591840e+02 1.0711591840e+02 0.0000000000e+00 0.0000e+00 1.0000e+00
       21 -1    0    0  501  502 -0.0000000000e+00 -0.0000000000e+00 -3.6467502294e+01 3.6467502294e+01 0.0000000000e+00 0.0000e+00 1.0000e+00
       25  2    1    2    0    0 +0.0000000000e+00 +0.0000000000e+00 +7.0648416108e+01 1.4358342070e+02 1.2500000000e+02 0.0000e+00 0.0000e+00
      -15  1    3    3    0    0 +3.4335192231e+01 -4.1341830872e+01 +7.1788398063e+01 8.9692721170e+01 1.7770000000e+00 0.0000e+00 1.0000e+00
       15  1    3    3    0    0 -3.4362450815e+01 +4.1377082200e+01 -1.1847641600e+00 5.3827524117e+01 1.7770000000e+00 0.0000e+00 1.0000e+00
       22  1    3    3    0    0 +2.7258584647e-02 -3.5251327640e-02 +4.4782201942e-02 6.3175407780e-02 0.0000000000e+00 0.0000e+00 -1.0000e+00
<mgrwt>
<rscale>  2 0.12500000E+03</rscale>
<asrwt>0</asrwt>
<pdfrwt beam="1">  1       21 0.15752341E-01 0.12500000E+03</pdfrwt>
<pdfrwt beam="2">  1       21 0.53628680E-02 0.12500000E+03</pdfrwt>
<totfact> 0.85718865E+06</totfact>
</mgrwt>
</event>
<event>
 6      0 +4.1053447e-01 1.25000000e+02 7.54677100e-03 1.12640300e-01
       21 -1    0    0  502  501 +0.0000000000e+00 +0.0000000000e+00 +6.2223205501e+00 6.2223205501e+00 0.0000000000e+00 0.0000e+00 1.0000e+00
       21 -1    0    0  501  502 -0.0000000000e+00 -0.0000000000e+00 -6.2778025795e+02 6.2778025795e+02 0.0000000000e+00 0.0000e+00 1.0000e+00
       25  2    1    2    0    0 +0.0000000000e+00 +0.0000000000e+00 -6.2155793740e+02 6.3400257850e+02 1.2500000000e+02 0.0000e+00 0.0000e+00
      -15  1    3    3    0    0 -5.4783820230e+01 +6.8130776383e+00 -4.5905684246e+02 4.6236784850e+02 1.7770000000e+00 0.0000e+00 -1.0000e+00
       15  1    3    3    0    0 +5.4312572942e+01 -6.7716740383e+00 -1.6080066515e+02 1.6986972300e+02 1.7770000000e+00 0.0000e+00 -1.0000e+00
       22  1    3    3    0    0 +4.7124728789e-01 -4.1403600012e-02 -1.7004297902e+00 1.7650070073e+00 0.0000000000e+00 0.0000e+00 1.0000e+00
<mgrwt>
<rscale>  2 0.12500000E+03</rscale>
<asrwt>0</asrwt>
<pdfrwt beam="1">  1       21 0.91504710E-03 0.12500000E+03</pdfrwt>
<pdfrwt beam="2">  1       21 0.92320630E-01 0.12500000E+03</pdfrwt>
<totfact> 0.36452178E+06</totfact>
</mgrwt>
</event>
<event>
 6      0 +4.1053447e-01 1.25000000e+02 7.54677100e-03 1.12640300e-01
       21 -1    0    0  502  501 +0.0000000000e+00 +0.0000000000e+00 +2.1571756841e+01 2.1571756841e+01 0.0000000000e+00 0.0000e+00 1.0000e+00
       21 -1    0    0  501  502 -0.0000000000e+00 -0.0000000000e+00 -1.8108168142e+02 1.8108168142e+02 0.0000000000e+00 0.0000e+00 1.0000e+00
       25  2    1    2    0    0 +0.0000000000e+00 +0.0000000000e+00 -1.5950992458e+02 2.0265343826e+02 1.2500000000e+02 0.0000e+00 0.0000e+00
      -15  1    3    3    0    0 +1.3097646175e+01 +4.5041247791e+01 -6.8874009646e+01 8.3348960832e+01 1.7770000000e+00 0.0000e+00 1.0000e+00
       15  1    3    3    0    0 -1.6755044174e+01 -5.9610168615e+01 -6.6549178936e+01 9.0917845628e+01 1.7770000000e+00 0.0000e+00 1.0000e+00
       22  1    3    3    0    0 +3.6573979991e+00 +1.4568920823e+01 -2.4086736003e+01 2.8386631808e+01 0.0000000000e+00 0.0000e+00 1.0000e+00
<mgrwt>
<rscale>  2 0.12500000E+03</rscale>
<asrwt>0</asrwt>
<pdfrwt beam="1">  1       21 0.31723173E-02 0.12500000E+03</pdfrwt>
<pdfrwt beam="2">  1       21 0.26629658E-01 0.12500000E+03</pdfrwt>
<totfact> 0.76433506E+06</totfact>
</mgrwt>
</event>
<event>
 6      0 +4.1053447e-01 1.25000000e+02 7.54677100e-03 1.12640300e-01
       21 -1    0    0  502  501 +0.0000000000e+00 +0.0000000000e+00 +4.1125912357e+00 4.1125912357e+00 0.0000000000e+00 0.0000e+00 -1.0000e+00
       21 -1    0    0  501  502 -0.0000000000e+00 -0.0000000000e+00 -9.4982695243e+02 9.4982695243e+02 0.0000000000e+00 0.0000e+00 -1.0000e+00
       25  2    1    2    0    0 +0.0000000000e+00 +0.0000000000e+00 -9.4571436119e+02 9.5393954366e+02 1.2500000000e+02 0.0000e+00 0.0000e+00
      -15  1    3    3    0    0 +6.1378571668e+01 -6.2841114078e+00 -5.4771977688e+02 5.5118683840e+02 1.7770000000e+00 0.0000e+00 1.0000e+00
       15  1    3    3    0    0 -6.1377174110e+01 +6.2832178653e+00 -3.9797275924e+02 4.0273081724e+02 1.7770000000e+00 0.0000e+00 1.0000e+00
       22  1    3    3    0    0 -1.3975575389e-03 +8.9354255386e-04 -2.1825157563e-02 2.1888103801e-02 0.0000000000e+00 0.0000e+00 1.0000e+00
<mgrwt>
<rscale>  2 0.12500000E+03</rscale>
<asrwt>0</asrwt>
<pdfrwt beam="1">  1       21 0.60479237E-03 0.12500000E+03</pdfrwt>
<pdfrwt beam="2">  1       21 0.13968054E+00 0.12500000E+03</pdfrwt>
<totfact> 0.22609167E+06</totfact>
</mgrwt>
</event>
<event>
 6      0 +4.1053447e-01 1.25000000e+02 7.54677100e-03 1.12640300e-01
       21 -1    0    0  502  501 +0.0000000000e+00 +0.0000000000e+00 +1.3865923086e+02 1.3865923086e+02 0.0000000000e+00 0.0000e+00 1.0000e+00
       21 -1    0    0  501  502 -0.0000000000e+00 -0.0000000000e+00 -2.8171582777e+01 2.8171582777e+01 0.0000000000e+00 0.0000e+00 1.0000e+00
       25  2    1    2    0    0 +0.0000000000e+00 +0.0000000000e+00 +1.1048764808e+02 1.6683081364e+02 1.2500000000e+02 0.0000e+00 0.0000e+00
      -15  1    3    3    0    0 +5.7785872235e+01 -1.6427928968e+01 +7.7579305923e+01 9.8136590101e+01 1.7770000000e+00 0.0000e+00 -1.0000e+00
       15  1    3    3    0    0 -5.7866425650e+01 +1.6490116262e+01 +3.2840064239e+01 6.8571675640e+01 1.7770000000e+00 0.0000e+00 -1.0000e+00
       22  1    3    3    0    0 +8.0553415359e-02 -6.2187294328e-02 +6.8277912824e-02 1.2254789138e-01 0.0000000000e+00 0.0000e+00 1.0000e+00
<mgrwt>
<rscale>  2 0.12500000E+03</rscale>
<asrwt>0</asrwt>
<pdfrwt beam="1">  1       21 0.20391063E-01 0.12500000E+03</pdfrwt>
<pdfrwt beam="2">  1       21 0.41428799E-02 0.12500000E+03</pdfrwt>
<totfact> 0.81870579E+06</totfact>
</mgrwt>
</event>
<event>
 6      0 +4.1053447e-01 1.25000000e+02 7.54677100e-03 1.12640300e-01
       21 -1    0    0  502  501 +0.0000000000e+00 +0.0000000000e+00 +2.0253077575e+01 2.0253077575e+01 0.0000000000e+00 0.0000e+00 -1.0000e+00
       21 -1    0    0  501  502 -0.0000000000e+00 -0.0000000000e+00 -1.9287192209e+02 1.9287192209e+02 0.0000000000e+00 0.0000e+00 -1.0000e+00
       25  2    1    2    0    0 +0.0000000000e+00 +0.0000000000e+00 -1.7261884451e+02 2.1312499966e+02 1.2500000000e+02 0.0000e+00 0.0000e+00
      -15  1    3    3    0    0 +6.1909223179e+01 -5.7996461568e+00 -7.5981153930e+01 9.8197155212e+01 1.7770000000e+00 0.0000e+00 -1.0000e+00
       15  1    3    3    0    0 -6.1909240666e+01 +5.7997745952e+00 -9.6637557994e+01 1.1492765903e+02 1.7770000000e+00 0.0000e+00 -1.0000e+00
       22  1    3    3    0    0 +1.7487103721e-05 -1.2843836628e-04 -1.3258494950e-04 1.8542109255e-04 0.0000000000e+00 0.0000e+00 -1.0000e+00
<mgrwt>
<rscale>  2 0.12500000E+03</rscale>
<asrwt>0</asrwt>
<pdfrwt beam="1">  1       21 0.29783936E-02 0.12500000E+03</pdfrwt>
<pdfrwt beam="2">  1       21 0.28363519E-01 0.12500000E+03</pdfrwt>
<totfact> 0.74945313E+06</totfact>
</mgrwt>
</event>
<event>
 6      0 +4.1053447e-01 1.25000000e+02 7.54677100e-03 1.12640300e-01
       21 -1    0    0  502  501 +0.0000000000e+00 +0.0000000000e+00 +3.8001777794e+02 3.8001777794e+02 0.0000000000e+00 0.0000e+00 -1.0000e+00
       21 -1    0    0  501  502 -0.0000000000e+00 -0.0000000000e+00 -1.0279124364e+01 1.0279124364e+01 0.0000000000e+00 0.0000e+00 -1.0000e+00
       25  2    1    2    0    0 +0.0000000000e+00 +0.0000000000e+00 +3.6973865358e+02 3.9029690231e+02 1.2500000000e+02 0.0000e+00 0.0000e+00
      -15  1    3    3    0    0 -3.2881532666e+01 -5.3042514057e+01 +1.9386375042e+02 2.0366888556e+02 1.7770000000e+00 0.0000e+00 -1.0000e+00
       15  1    3    3    0    0 +3.2881694985e+01 +5.3042960785e+01 +1.7587467105e+02 1.8662748779e+02 1.7770000000e+00 0.0000e+00 -1.0000e+00
       22  1    3    3    0    0 -1.6231884591e-04 -4.4672799131e-04 +2.3209353805e-04 5.2894301807e-04 0.0000000000e+00 0.0000e+00 -1.0000e+00
<mgrwt>
<rscale>  2 0.12500000E+03</rscale>
<asrwt>0</asrwt>
<pdfrwt beam="1">  1       21 0.55884958E-01 0.12500000E+03</pdfrwt>
<pdfrwt beam="2">  1       21 0.15116362E-02 0.12500000E+03</pdfrwt>
<totfact> 0.54561811E+06</totfact>
</mgrwt>
</event>
<event>
 6      0 +4.1053447e-01 1.25000000e+02 7.54677100e-03 1.12640300e-01
       21 -1    0    0  502  501 +0.0000000000e+00 +0.0000000000e+00 +2.0105272664e+03 2.0105272664e+03 0.0000000000e+00 0.0000e+00 -1.0000e+00
       21 -1    0    0  501  502 -0.0000000000e+00 -0.0000000000e+00 -1.9428982960e+00 1.9428982960e+00 0.0000000000e+00 0.0000e+00 -1.0000e+00
       25  2    1    2    0    0 +0.0000000000e+00 +0.0000000000e+00 +2.0085843681e+03 2.0124701647e+03 1.2500000000e+02 0.0000e+00 0.0000e+00
      -15  1    3    3    0    0 +1.5633460654e+01 +2.7199966312e+01 +1.3448052846e+02 1.3810290918e+02 1.7770000000e+00 0.0000e+00 1.0000e+00
       15  1    3    3    0    0 -1.5633399904e+01 -2.7199975438e+01 +1.8741027767e+03 1.8743661908e+03 1.7770000000e+00 0.0000e+00 1.0000e+00
       22  1    3    3    0    0 -6.0749353483e-05 +9.1253742825e-06 +1.0608588323e-03 1.0626359764e-03 0.0000000000e+00 0.0000e+00 1.0000e+00
<mgrwt>
<rscale>  2 0.12500000E+03</rscale>
<asrwt>0</asrwt>
<pdfrwt beam="1">  1       21 0.29566432E+00 0.12500000E+03</pdfrwt>
<pdfrwt beam="2">  1       21 0.28572174E-03 0.12500000E+03</pdfrwt>
<totfact> 0.53049697E+05</totfact>
</mgrwt>
</event>
<event>
 6      0 +4.1053447e-01 1.25000000e+02 7.54677100e-03 1.12640300e-01
       21 -1    0    0  502  501 +0.0000000000e+00 +0.0000000000e+00 +3.8022699627e+02 3.8022699627e+02 0.0000000000e+00 0.0000e+00 1.0000e+00
       21 -1    0    0  501  502 -0.0000000000e+00 -0.0000000000e+00 -1.0273468318e+01 1.0273468318e+01 0.0000000000e+00 0.0000e+00 1.0000e+00
       25  2    1    2    0    0 +0.0000000000e+00 +0.0000000000e+00 +3.6995352795e+02 3.9050046459e+02 1.2500000000e+02 0.0000e+00 0.0000e+00
      -15  1    3    3    0    0 +4.3714659018e+01 +4.2155898710e+01 +1.3990638864e+02 1.5252883832e+02 1.7770000000e+00 0.0000e+00 -1.0000e+00
       15  1    3    3    0    0 -4.3767068860e+01 -4.2186805870e+01 +2.2995826579e+02 2.3786392043e+02 1.7770000000e+00 0.0000e+00 -1.0000e+00
       22  1    3    3    0    0 +5.2409841750e-02 +3.0907159963e-02 +8.8873489181e-02 1.0770580824e-01 0.0000000000e+00 0.0000e+00 1.0000e+00
<mgrwt>
<rscale>  2 0.12500000E+03</rscale>
<asrwt>0</asrwt>
<pdfrwt beam="1">  1       21 0.55915725E-01 0.12500000E+03</pdfrwt>
<pdfrwt beam="2">  1       21 0.15108044E-02 0.12500000E+03</pdfrwt>
<totfact> 0.54542606E+06</totfact>
</mgrwt>
</event>
<event>
 6      0 +4.1053447e-01 1.25000000e+02 7.54677100e-03 1.12640300e-01
       21 -1    0    0  502  501 +0.0000000000e+00 +0.0000000000e+00 +4.6914738281e+02 4.6914738281e+02 0.0000000000e+00 0.0000e+00 1.0000e+00
       21 -1    0    0  501  502 -0.0000000000e+00 -0.0000000000e+00 -8.3262747340e+00 8.3262747340e+00 0.0000000000e+00 0.0000e+00 1.0000e+00
       25  2    1    2    0    0 +0.0000000000e+00 +0.0000000000e+00 +4.6082110808e+02 4.7747365754e+02 1.2500000000e+02 0.0000e+00 0.0000e+00
      -15  1    3    3    0    0 +4.0974976696e+00 -6.0674146177e+01 +2.8509504557e+02 2.9151412357e+02 1.7770000000e+00 0.0000e+00 -1.0000e+00
       15  1    3    3    0    0 -4.0974976668e+00 +6.0674146191e+01 +1.7572606256e+02 1.8595953402e+02 1.7770000000e+00 0.0000e+00 -1.0000e+00
       22  1    3    3    0    0 -2.7129533426e-09 -1.3874481498e-08 +6.4647218250e-08 6.6174951304e-08 0.0000000000e+00 0.0000e+00 -1.0000e+00
<mgrwt>
<rscale>  2 0.12500000E+03</rscale>
<asrwt>0</asrwt>
<pdfrwt beam="1">  1       21 0.68992244E-01 0.12500000E+03</pdfrwt>
<pdfrwt beam="2">  1       21 0.12244525E-02 0.12500000E+03</pdfrwt>
<totfact> 0.47050563E+06</totfact>
</mgrwt>
</event>
<event>
 6      0 +4.1053447e-01 1.25000000e+02 7.54677100e-03 1.12640300e-01
       21 -1    0    0  502  501 +0.0000000000e+00 +0.0000000000e+00 +1.2074220564e+02 1.2074220564e+02 0.0000000000e+00 0.0000e+00 1.0000e+00
       21 -1    0    0  501  502 -0.0000000000e+00 -0.0000000000e+00 -3.2351984788e+01 3.2351984788e+01 0.0000000000e+00 0.0000e+00 1.0000e+00
       25  2    1    2    0    0 +0.0000000000e+00 +0.0000000000e+00 +8.8390220850e+01 1.5309419043e+02 1.2500000000e+02 0.0000e+00 0.0000e+00
      -15  1    3    3    0    0 +2.2992375035e+01 +2.1823280248e+01 -1.2600352549e+01 3.4158915146e+01 1.7770000000e+00 0.0000e+00 1.0000e+00
       15  1    3    3    0    0 -2.6384944444e+01 -2.8981088972e+01 +1.0345122845e+02 1.1064078456e+02 1.7770000000e+00 0.0000e+00 1.0000e+00
       22  1    3    3    0    0 +3.3925694082e+00 +7.1578087240e+00 -2.4606550565e+00 8.2944907152e+00 0.0000000000e+00 0.0000e+00 1.0000e+00
<mgrwt>
<rscale>  2 0.12500000E+03</rscale>
<asrwt>0</asrwt>
<pdfrwt beam="1">  1       21 0.17756207E-01 0.12500000E+03</pdfrwt>
<pdfrwt beam="2">  1       21 0.47576449E-02 0.12500000E+03</pdfrwt>
<totfact> 0.84109863E+06</totfact>
</mgrwt>
</event>
<event>
 6      0 +4.1053447e-01 1.25000000e+02 7.54677100e-03 1.12640300e-01
       21 -1    0    0  502  501 +0.0000000000e+00 +0.0000000000e+00 +4.0896499781e+01 4.0896499781e+01 0.0000000000e+00 0.0000e+00 -1.0000e+00
       21 -1    0    0  501  502 -0.0000000000e+00 -0.0000000000e+00 -9.5515509173e+01 9.5515509173e+01 0.0000000000e+00 0.0000e+00 -1.0000e+00
       25  2    1    2    0    0 +0.0000000000e+00 +0.0000000000e+00 -5.4619009392e+01 1.3641200895e+02 1.2500000000e+02 0.0000e+00 0.0000e+00
      -15  1    3    3    0    0 -4.0392046001e+01 +8.5690011938e+00 +2.3855041245e+01 4.7719659297e+01 1.7770000000e+00 0.0000e+00 -1.0000e+00
       15  1    3    3    0    0 +3.9762118603e+01 -8.4334193050e+00 -7.7265341237e+01 8.7322616328e+01 1.7770000000e+00 0.0000e+00 -1.0000e+00
       22  1    3    3    0    0 +6.2992739798e-01 -1.3558188875e-01 -1.2087094028e+00 1.3697333301e+00 0.0000000000e+00 0.0000e+00 -1.0000e+00
<mgrwt>
<rscale>  2 0.12500000E+03</rscale>
<asrwt>0</asrwt>
<pdfrwt beam="1">  1       21 0.60141912E-02 0.12500000E+03</pdfrwt>
<pdfrwt beam="2">  1       21 0.14046398E-01 0.12500000E+03</pdfrwt>
<totfact> 0.86959912E+06</totfact>
</mgrwt>
</event>
<event>
 6      0 +4.1053447e-01 1.25000000e+02 7.54677100e-03 1.12640300e-01
       21 -1    0    0  502  501 +0.0000000000e+00 +0.0000000000e+00 +1.9029545030e+01 1.9029545030e+01 0.0000000000e+00 0.0000e+00 -1.0000e+00
       21 -1    0    0  501  502 -0.0000000000e+00 -0.0000000000e+00 -2.0527290557e+02 2.0527290557e+02 0.0000000000e+00 0.0000e+00 -1.0000e+00
       25  2    1    2    0    0 +0.0000000000e+00 +0.0000000000e+00 -1.8624336054e+02 2.2430245060e+02 1.2500000000e+02 0.0000e+00 0.0000e+00
      -15  1    3    3    0    0 +1.3131269981e+01 +6.1065716738e+01 -9.2674421004e+01 1.1177279655e+02 1.7770000000e+00 0.0000e+00 1.0000e+00
       15  1    3    3    0    0 -1.3060298085e+01 -6.0990337964e+01 -9.3483843553e+01 1.1239563802e+02 1.7770000000e+00 0.0000e+00 1.0000e+00
       22  1    3    3    0    0 -7.0971896088e-02 -7.5378773998e-02 -8.5095982248e-02 1.3401602814e-01 0.0000000000e+00 0.0000e+00 -1.0000e+00
<mgrwt>
<rscale>  2 0.12500000E+03</rscale>
<asrwt>0</asrwt>
<pdfrwt beam="1">  1       21 0.27984624E-02 0.12500000E+03</pdfrwt>
<pdfrwt beam="2">  1       21 0.30187194E-01 0.12500000E+03</pdfrwt>
<totfact> 0.73406142E+06</totfact>
</mgrwt>
</event>
<event>
 6      0 +4.1053447e-01 1.25000000e+02 7.54677100e-03 1.12640300e-01
       21 -1    0    0  502  501 +0.0000000000e+00 +0.0000000000e+00 +2.9292006600e+01 2.9292006600e+01 0.0000000000e+00 0.0000e+00 -1.0000e+00
       21 -1    0    0  501  502 -0.0000000000e+00 -0.0000000000e+00 -1.3335549364e+02 1.3335549364e+02 0.0000000000e+00 0.0000e+00 -1.0000e+00
       25  2    1    2    0    0 +0.0000000000e+00 +0.0000000000e+00 -1.0406348704e+02 1.6264750024e+02 1.2500000000e+02 0.0000e+00 0.0000e+00
      -15  1    3    3    0    0 -1.9098464374e+01 -5.1838172442e+01 -8.9970606062e+01 1.0559268511e+02 1.7770000000e+00 0.0000e+00 1.0000e+00
       15  1    3    3    0    0 +1.9100376162e+01 +5.1843408034e+01 -1.4084361245e+01 5.7044634163e+01 1.7770000000e+00 0.0000e+00 1.0000e+00
       22  1    3    3    0    0 -1.9117881896e-03 -5.2355925501e-03 -8.5197340912e-03 1.0180974041e-02 0.0000000000e+00 0.0000e+00 -1.0000e+00
<mgrwt>
<rscale>  2 0.12500000E+03</rscale>
<asrwt>0</asrwt>
<pdfrwt beam="1">  1       21 0.43076481E-02 0.12500000E+03</pdfrwt>
<pdfrwt beam="2">  1       21 0.19611102E-01 0.12500000E+03</pdfrwt>
<totfact> 0.82548067E+06</totfact>
</mgrwt>
</event>
<event>
 6      0 +4.1053447e-01 1.25000000e+02 7.54677100e-03 1.12640300e-01
       21 -1    0    0  502  501 +0.0000000000e+00 +0.0000000000e+00 +5.5678316454e+01 5.5678316454e+01 0.0000000000e+00 0.0000e+00 -1.0000e+00
       21 -1    0    0  501  502 -0.0000000000e+00 -0.0000000000e+00 -7.0157473300e+01 7.0157473300e+01 0.0000000000e+00 0.0000e+00 -1.0000e+00
       25  2    1    2    0    0 +0.0000000000e+00 +0.0000000000e+00 -1.4479156847e+01 1.2583578975e+02 1.2500000000e+02 0.0000e+00 0.0000e+00
      -15  1    3    3    0    0 +5.7563188482e+01 +2.1264995817e+01 -1.8498030737e+01 6.4117513874e+01 1.7770000000e+00 0.0000e+00 -1.0000e+00
       15  1    3    3    0    0 -1.1105366812e+01 -5.5658942256e+00 +8.5696361476e-01 1.2577776680e+01 1.7770000000e+00 0.0000e+00 1.0000e+00
       22  1    3    3    0    0 -4.6457821669e+01 -1.5699101592e+01 +3.1619102750e+00 4.9140499200e+01 0.0000000000e+00 0.0000e+00 -1.0000e+00
<mgrwt>
<rscale>  2 0.12500000E+03</rscale>
<asrwt>0</asrwt>
<pdfrwt beam="1">  1       21 0.81879877E-02 0.12500000E+03</pdfrwt>
<pdfrwt beam="2">  1       21 0.10317275E-01 0.12500000E+03</pdfrwt>
<totfact> 0.88841570E+06</totfact>
</mgrwt>
</event>
<event>
 6      0 +4.1053447e-01 1.25000000e+02 7.54677100e-03 1.12640300e-01
       21 -1    0    0  502  501 +0.0000000000e+00 +0.0000000000e+00 +4.8646986551e+01 4.8646986551e+01 0.0000000000e+00 0.0000e+00 -1.0000e+00
       21 -1    0    0  501  502 -0.0000000000e+00 -0.0000000000e+00 -8.0297882294e+01 8.0297882294e+01 0.0000000000e+00 0.0000e+00 -1.0000e+00
       25  2    1    2    0    0 +0.0000000000e+00 +0.0000000000e+00 -3.1650895743e+01 1.2894486884e+02 1.2500000000e+02 0.0000e+00 0.0000e+00
      -15  1    3    3    0    0 -4.5023268896e+00 -4.1670072422e+01 +3.1966193737e+01 5.2741455746e+01 1.7770000000e+00 0.0000e+00 1.0000e+00
       15  1    3    3    0    0 +4.5023502918e+00 +4.1670074449e+01 -6.3617067320e+01 7.6203380806e+01 1.7770000000e+00 0.0000e+00 1.0000e+00
       22  1    3    3    0    0 -2.3402200942e-05 -2.0268280647e-06 -2.2161133657e-05 3.2293759241e-05 0.0000000000e+00 0.0000e+00 1.0000e+00
<mgrwt>
<rscale>  2 0.12500000E+03</rscale>
<asrwt>0</asrwt>
<pdfrwt beam="1">  1       21 0.71539687E-02 0.12500000E+03</pdfrwt>
<pdfrwt beam="2">  1       21 0.11808512E-01 0.12500000E+03</pdfrwt>
<totfact> 0.88289246E+06</totfact>
</mgrwt>
</event>
<event>
 6      0 +4.1053447e-01 1.25000000e+02 7.54677100e-03 1.12640300e-01
       21 -1    0    0  502  501 +0.0000000000e+00 +0.0000000000e+00 +1.2295798325e+01 1.2295798325e+01 0.0000000000e+00 0.0000e+00 1.0000e+00
       21 -1    0    0  501  502 -0.0000000000e+00 -0.0000000000e+00 -3.1768982352e+02 3.1768982352e+02 0.0000000000e+00 0.0000e+00 1.0000e+00
       25  2    1    2    0    0 +0.0000000000e+00 +0.0000000000e+00 -3.0539402520e+02 3.2998562185e+02 1.2500000000e+02 0.0000e+00 0.0000e+00
      -15  1    3    3    0    0 +3.4034583793e+01 +1.0052464545e+01 -2.8843145066e+02 2.9061187931e+02 1.7770000000e+00 0.0000e+00 1.0000e+00
       15  1    3    3    0    0 -3.4034583774e+01 -1.0052464536e+01 -1.6962574536e+01 3.9373742518e+01 1.7770000000e+00 0.0000e+00 1.0000e+00
       22  1    3    3    0    0 -1.8373771630e-08 -8.7346310728e-09 -2.1475587633e-09 2.0457303648e-08 0.0000000000e+00 0.0000e+00 -1.0000e+00
<mgrwt>
<rscale>  2 0.12500000E+03</rscale>
<asrwt>0</asrwt>
<pdfrwt beam="1">  1       21 0.18082056E-02 0.12500000E+03</pdfrwt>
<pdfrwt beam="2">  1       21 0.46719092E-01 0.12500000E+03</pdfrwt>
<totfact> 0.60624799E+06</totfact>
</mgrwt>
</event>
<event>
 6      0 +4.1053447e-01 1.25000000e+02 7.54677100e-03 1.12640300e-01
       21 -1    0    0  502  501 +0.0000000000e+00 +0.0000000000e+00 +6.9536373800e+00 6.9536373800e+00 0.0000000000e+00 0.0000e+00 1.0000e+00
       21 -1    0    0  501  502 -0.0000000000e+00 -0.0000000000e+00 -5.6175635664e+02 5.6175635664e+02 0.0000000000e+00 0.0000e+00 1.0000e+00
       25  2    1    2    0    0 +0.0000000000e+00 +0.0000000000e+00 -5.5480271926e+02 5.6870999402e+02 1.2500000000e+02 0.0000e+00 0.0000e+00
      -15  1    3    3    0    0 +4.3034419873e+00 -6.0802746973e+01 -3.3971645627e+02 3.4514623284e+02 1.7770000000e+00 0.0000e+00 1.0000e+00
       15  1    3    3    0    0 -4.3033701112e+00 +6.0802682166e+01 -2.1508587198e+02 2.2356335837e+02 1.7770000000e+00 0.0000e+00 1.0000e+00
       22  1    3    3    0    0 -7.1876141569e-05 +6.4806993179e-05 -3.9100764148e-04 4.0280653146e-04 0.0000000000e+00 0.0000e+00 1.0000e+00
<mgrwt>
<rscale>  2 0.12500000E+03</rscale>
<asrwt>0</asrwt>
<pdfrwt beam="1">  1       21 0.10225933E-02 0.12500000E+03</pdfrwt>
<pdfrwt beam="2">  1       21 0.82611264E-01 0.12500000E+03</pdfrwt>
<totfact> 0.40549261E+06</totfact>
</mgrwt>
</event>
<event>
 6      0 +4.1053447e-01 1.25000000e+02 7.54677100e-03 1.12640300e-01
       21 -1    0    0  502  501 +0.0000000000e+00 +0.0000000000e+00 +9.3794062838e+01 9.3794062838e+01 0.0000000000e+00 0.0000e+00 1.0000e+00
       21 -1    0    0  501  502 -0.0000000000e+00 -0.0000000000e+00 -4.1647092383e+01 4.1647092383e+01 0.0000000000e+00 0.0000e+00 1.0000e+00
       25  2    1    2    0    0 +0.0000000000e+00 +0.0000000000e+00 +5.2146970455e+01 1.3544115522e+02 1.2500000000e+02 0.0000e+00 0.0000e+00
      -15  1    3    3    0    0 -1.9710831995e+01 +5.8565876968e+01 +2.1808661298e+01 6.5553445978e+01 1.7770000000e+00 0.0000e+00 -1.0000e+00
       15  1    3    3    0    0 +1.9885130686e+01 -5.9105306949e+01 +3.0156815885e+01 6.9292474377e+01 1.7770000000e+00 0.0000e+00 -1.0000e+00
       22  1    3    3    0    0 -1.7429869104e-01 +5.3942998133e-01 +1.8149327197e-01 5.9523486644e-01 0.0000000000e+00 0.0000e+00 1.0000e+00
<mgrwt>
<rscale>  2 0.12500000E+03</rscale>
<asrwt>0</asrwt>
<pdfrwt beam="1">  1       21 0.13793245E-01 0.12500000E+03</pdfrwt>
<pdfrwt beam="2">  1       21 0.61245724E-02 0.12500000E+03</pdfrwt>
<totfact> 0.87128833E+06</totfact>
</mgrwt>
</event>
<event>
 6      0 +4.1053447e-01 1.25000000e+02 7.54677100e-03 1.12640300e-01
       21 -1    0    0  502  501 +0.0000000000e+00 +0.0000000000e+00 +1.1071017170e+03 1.1071017170e+03 0.0000000000e+00 0.0000e+00 1.0000e+00
       21 -1    0    0  501  502 -0.0000000000e+00 -0.0000000000e+00 -3.5283569161e+00 3.5283569161e+00 0.0000000000e+00 0.0000e+00 1.0000e+00
       25  2    1    2    0    0 +0.0000000000e+00 +0.0000000000e+00 +1.1035733601e+03 1.1106300739e+03 1.2500000000e+02 0.0000e+00 0.0000e+00
      -15  1    3    3    0    0 -4.1145777953e+01 -4.4033687422e+01 +4.0547988458e+02 4.0993784309e+02 1.7770000000e+00 0.0000e+00 1.0000e+00
       15  1    3    3    0    0 +4.1145782585e+01 +4.4033699960e+01 +6.9809339258e+02 7.0069214684e+02 1.7770000000e+00 0.0000e+00 1.0000e+00
       22  1    3    3    0    0 -4.6327130871e-06 -1.2538793114e-05 +8.5459352637e-05 8.6498464243e-05 0.0000000000e+00 0.0000e+00 -1.0000e+00
<mgrwt>
<rscale>  2 0.12500000E+03</rscale>
<asrwt>0</asrwt>
<pdfrwt beam="1">  1       21 0.16280883E+00 0.12500000E+03</pdfrwt>
<pdfrwt beam="2">  1       21 0.51887679E-03 0.12500000E+03</pdfrwt>
<totfact> 0.18135987E+06</totfact>
</mgrwt>
</event>
<event>
 6      0 +4.1053447e-01 1.25000000e+02 7.54677100e-03 1.12640300e-01
       21 -1    0    0  502  501 +0.0000000000e+00 +0.0000000000e+00 +1.5051565968e+02 1.5051565968e+02 0.0000000000e+00 0.0000e+00 -1.0000e+00
       21 -1    0    0  501  502 -0.0000000000e+00 -0.0000000000e+00 -2.5952449123e+01 2.5952449123e+01 0.0000000000e+00 0.0000e+00 -1.0000e+00
       25  2    1    2    0    0 +0.0000000000e+00 +0.0000000000e+00 +1.2456321055e+02 1.7646810880e+02 1.2500000000e+02 0.0000e+00 0.0000e+00
      -15  1    3    3    0    0 +3.8506414889e+01 -3.8840076367e+01 +1.0491061283e+02 1.1832451112e+02 1.7770000000e+00 0.0000e+00 1.0000e+00
       15  1    3    3    0    0 -3.8506409131e+01 +3.8840075033e+01 +1.9652594837e+01 5.8143591097e+01 1.7770000000e+00 0.0000e+00 1.0000e+00
       22  1    3    3    0    0 -5.7576002399e-06 +1.3333338633e-06 +2.8844896466e-06 6.5763226985e-06 0.0000000000e+00 0.0000e+00 -1.0000e+00
<mgrwt>
<rscale>  2 0.12500000E+03</rscale>
<asrwt>0</asrwt>
<pdfrwt beam="1">  1       21 0.22134656E-01 0.12500000E+03</pdfrwt>
<pdfrwt beam="2">  1       21 0.38165367E-02 0.12500000E+03</pdfrwt>
<totfact> 0.80350183E+06</totfact>
</mgrwt>
</event>
<event>
 6      0 +4.1053447e-01 1.25000000e+02 7.54677100e-03 1.12640300e-01
       21 -1    0    0  502  501 +0.0000000000e+00 +0.0000000000e+00 +2.0295701516e+02 2.0295701516e+02 0.0000000000e+00 0.0000e+00 1.0000e+00
       21 -1    0    0  501  502 -0.0000000000e+00 -0.0000000000e+00 -1.9246686284e+01 1.9246686284e+01 0.0000000000e+00 0.0000e+00 1.0000e+00
       25  2    1    2    0    0 +0.0000000000e+00 +0.0000000000e+00 +1.8371032887e+02 2.2220370144e+02 1.2500000000e+02 0.0000e+00 0.0000e+00
      -15  1    3    3    0    0 -5.4964574870e+01 -1.3402703797e+01 +1.3896506131e+02 1.5005060131e+02 1.7770000000e+00 0.0000e+00 1.0000e+00
       15  1    3    3    0    0 +5.4961531000e+01 +1.3403367009e+01 +4.4742622373e+01 7.2149013319e+01 1.7770000000e+00 0.0000e+00 1.0000e+00
       22  1    3    3    0    0 +3.0438701177e-03 -6.6321175809e-04 +2.6451815048e-03 4.0868056381e-03 0.0000000000e+00 0.0000e+00 1.0000e+00
<mgrwt>
<rscale>  2 0.12500000E+03</rscale>
<asrwt>0</asrwt>
<pdfrwt beam="1">  1       21 0.29846619E-01 0.12500000E+03</pdfrwt>
<pdfrwt beam="2">  1       21 0.28303951E-02 0.12500000E+03</pdfrwt>
<totfact> 0.73691732E+06</totfact>
</mgrwt>
</event>
<event>
 6      0 +4.1053447e-01 1.25000000e+02 7.54677100e-03 1.12640300e-01
       21 -1    0    0  502  501 +0.0000000000e+00 +0.0000000000e+00 +3.0476604559e+02 3.0476604559e+02 0.0000000000e+00 0.0000e+00 1.0000e+00
       21 -1    0    0  501  502 -0.0000000000e+00 -0.0000000000e+00 -1.2817208664e+01 1.2817208664e+01 0.0000000000e+00 0.0000e+00 1.0000e+00
       25  2    1    2    0    0 +0.0000000000e+00 +0.0000000000e+00 +2.9194883692e+02 3.1758325425e+02 1.2500000000e+02 0.0000e+00 0.0000e+00
      -15  1    3    3    0    0 -5.8897921243e+01 -1.2796672903e+01 +1.8768695177e+02 1.9713515556e+02 1.7770000000e+00 0.0000e+00 -1.0000e+00
       15  1    3    3    0    0 +5.8874680045e+01 +1.2795652035e+01 +1.0425253362e+02 1.2042302586e+02 1.7770000000e+00 0.0000e+00 -1.0000e+00
       22  1    3    3    0    0 +2.3241197684e-02 +1.0208673548e-03 +9.3515189970e-03 2.5072820892e-02 0.0000000000e+00 0.0000e+00 1.0000e+00
<mgrwt>
<rscale>  2 0.12500000E+03</rscale>
<asrwt>0</asrwt>
<pdfrwt beam="1">  1       21 0.44818531E-01 0.12500000E+03</pdfrwt>
<pdfrwt beam="2">  1       21 0.18848838E-02 0.12500000E+03</pdfrwt>
<totfact> 0.61971781E+06</totfact>
</mgrwt>
</event>
<event>
 6      0 +4.1053447e-01 1.25000000e+02 7.54677100e-03 1.12640300e-01
       21 -1    0    0  502  501 +0.0000000000e+00 +0.0000000000e+00 +7.5019491494e+00 7.5019491494e+00 0.0000000000e+00 0.0000e+00 -1.0000e+00
       21 -1    0    0  501  502 -0.0000000000e+00 -0.0000000000e+00 -5.2069801091e+02 5.2069801091e+02 0.0000000000e+00 0.0000e+00 -1.0000e+00
       25  2    1    2    0    0 +0.0000000000e+00 +0.0000000000e+00 -5.1319606176e+02 5.2819996006e+02 1.2500000000e+02 0.0000e+00 0.0000e+00
      -15  1    3    3    0    0 -6.1590725393e+01 -7.5841274371e+00 -2.8698471498e+02 2.9362275253e+02 1.7770000000e+00 0.0000e+00 1.0000e+00
       15  1    3    3    0    0 +5.5189559412e+01 +6.5981679136e+00 -2.0245573252e+02 2.0995452995e+02 1.7770000000e+00 0.0000e+00 1.0000e+00
       22  1    3    3    0    0 +6.4011659807e+00 +9.8595952346e-01 -2.3755614238e+01 2.4622677554e+01 0.0000000000e+00 0.0000e+00 -1.0000e+00
<mgrwt>
<rscale>  2 0.12500000E+03</rscale>
<asrwt>0</asrwt>
<pdfrwt beam="1">  1       21 0.11032280E-02 0.12500000E+03</pdfrwt>
<pdfrwt beam="2">  1       21 0.76573223E-01 0.12500000E+03</pdfrwt>
<totfact> 0.43292336E+06</totfact>
</mgrwt>
</event>
<event>
 6      0 +4.1053447e-01 1.25000000e+02 7.54677100e-03 1.12640300e-01
       21 -1    0    0  502  501 +0.0000000000e+00 +0.0000000000e+00 +1.1447002752e+01 1.1447002752e+01 0.0000000000e+00 0.0000e+00 -1.0000e+00
       21 -1    0    0  501  502 -0.0000000000e+00 -0.0000000000e+00 -3.4124653279e+02 3.4124653279e+02 0.0000000000e+00 0.0000e+00 -1.0000e+00
       25  2    1    2    0    0 +0.0000000000e+00 +0.0000000000e+00 -3.2979953004e+02 3.5269353554e+02 1.2500000000e+02 0.0000e+00 0.0000e+00
      -15  1    3    3    0    0 +3.2672024802e+01 +2.4283281845e+01 -2.6896004219e+02 2.7202904441e+02 1.7770000000e+00 0.0000e+00 1.0000e+00
       15  1    3    3    0    0 -3.1156970007e+01 -6.3449406435e+00 -2.4744967295e+01 4.0329718412e+01 1.7770000000e+00 0.0000e+00 1.0000e+00
       22  1    3    3    0    0 -1.5150547945e+00 -1.7938341202e+01 -3.6094520589e+01 4.0334772749e+01 0.0000000000e+00 0.0000e+00 1.0000e+00
<mgrwt>
<rscale>  2 0.12500000E+03</rscale>
<asrwt>0</asrwt>
<pdfrwt beam="1">  1       21 0.16833830E-02 0.12500000E+03</pdfrwt>
<pdfrwt beam="2">  1       21 0.50183308E-01 0.12500000E+03</pdfrwt>
<totfact> 0.58253776E+06</totfact>
</mgrwt>
</event>
<event>
 6      0 +4.1053447e-01 1.25000000e+02 7.54677100e-03 1.12640300e-01
       21 -1    0    0  502  501 +0.0000000000e+00 +0.0000000000e+00 +1.0296968654e+02 1.0296968654e+02 0.0000000000e+00 0.0000e+00 1.0000e+00
       21 -1    0    0  501  502 -0.0000000000e+00 -0.0000000000e+00 -3.7935922029e+01 3.7935922029e+01 0.0000000000e+00 0.0000e+00 1.0000e+00
       25  2    1    2    0    0 +0.0000000000e+00 +0.0000000000e+00 +6.5033764514e+01 1.4090560857e+02 1.2500000000e+02 0.0000e+00 0.0000e+00
      -15  1    3    3    0    0 +1.5707087907e+01 -1.7123924937e+01 +9.1228554637e+01 9.4158102816e+01 1.7770000000e+00 0.0000e+00 1.0000e+00
       15  1    3    3    0    0 -1.6502098334e+01 +1.8669542755e+01 -3.2052530970e+01 4.0637341776e+01 1.7770000000e+00 0.0000e+00 1.0000e+00
       22  1    3    3    0    0 +7.9501042620e-01 -1.5456178181e+00 +5.8577408479e+00 6.1101639797e+00 0.0000000000e+00 0.0000e+00 -1.0000e+00
<mgrwt>
<rscale>  2 0.12500000E+03</rscale>
<asrwt>0</asrwt>
<pdfrwt beam="1">  1       21 0.15142601E-01 0.12500000E+03</pdfrwt>
<pdfrwt beam="2">  1       21 0.55788121E-02 0.12500000E+03</pdfrwt>
<totfact> 0.86183594E+06</totfact>
</mgrwt>
</event>
<event>
 6      0 +4.1053447e-01 1.25000000e+02 7.54677100e-03 1.12640300e-01
       21 -1    0    0  502  501 +0.0000000000e+00 +0.0000000000e+00 +3.7339628218e+01 3.7339628218e+01 0.0000000000e+00 0.0000e+00 1.0000e+00
       21 -1    0    0  501  502 -0.0000000000e+00 -0.0000000000e+00 -1.0461405714e+02 1.0461405714e+02 0.0000000000e+00 0.0000e+00 1.0000e+00
       25  2    1    2    0    0 +0.0000000000e+00 +0.0000000000e+00 -6.7274428922e+01 1.4195368536e+02 1.2500000000e+02 0.0000e+00 0.0000e+00
      -15  1    3    3    0    0 +4.6236292807e+01 -3.2043190909e+01 -6.4499006823e+01 8.5602806416e+01 1.7770000000e+00 0.0000e+00 -1.0000e+00
       15  1    3    3    0    0 -4.6236292820e+01 +3.2043190920e+01 -2.7754220815e+00 5.6350878918e+01 1.7770000000e+00 0.0000e+00 -1.0000e+00
       22  1    3    3    0    0 +1.2560748554e-08 -1.1450727278e-08 -1.6483707513e-08 2.3677081172e-08 0.0000000000e+00 0.0000e+00 -1.0000e+00
<mgrwt>
<rscale>  2 0.12500000E+03</rscale>
<asrwt>0</asrwt>
<pdfrwt beam="1">  1       21 0.54911218E-02 0.12500000E+03</pdfrwt>
<pdfrwt beam="2">  1       21 0.15384420E-01 0.12500000E+03</pdfrwt>
<totfact> 0.86001894E+06</totfact>
</mgrwt>
</event>
<event>
 6      0 +4.1053447e-01 1.25000000e+02 7.54677100e-03 1.12640300e-01
       21 -1    0    0  502  501 +0.0000000000e+00 +0.0000000000e+00 +9.7292621875e+01 9.7292621875e+01 0.0000000000e+00 0.0000e+00 1.0000e+00
       21 -1    0    0  501  502 -0.0000000000e+00 -0.0000000000e+00 -4.0149498746e+01 4.0149498746e+01 0.0000000000e+00 0.0000e+00 1.0000e+00
       25  2    1    2    0    0 +0.0000000000e+00 +0.0000000000e+00 +5.7143123129e+01 1.3744212062e+02 1.2500000000e+02 0.0000e+00 0.0000e+00
      -15  1    3    3    0    0 -2.5220438916e+01 +3.9194427956e+01 -1.7172592819e+01 4.9702408343e+01 1.7770000000e+00 0.0000e+00 1.0000e+00
       15  1    3    3    0    0 +2.5220438970e+01 -3.9194428009e+01 +7.4315715966e+01 8.7739712202e+01 1.7770000000e+00 0.0000e+00 1.0000e+00
       22  1    3    3    0    0 -5.3686703199e-08 +5.2137464438e-08 -1.7131333022e-08 7.6772780786e-08 0.0000000000e+00 0.0000e+00 1.0000e+00
<mgrwt>
<rscale>  2 0.12500000E+03</rscale>
<asrwt>0</asrwt>
<pdfrwt beam="1">  1       21 0.14307738E-01 0.12500000E+03</pdfrwt>
<pdfrwt beam="2">  1       21 0.59043381E-02 0.12500000E+03</pdfrwt>
<totfact> 0.86781569E+06</totfact>
</mgrwt>
</event>
<event>
 6      0 +4.1053447e-01 1.25000000e+02 7.54677100e-03 1.12640300e-01
       21 -1    0    0  502  501 +0.0000000000e+00 +0.0000000000e+00 +5.8017163261e+01 5.8017163261e+01 0.0000000000e+00 0.0000e+00 1.0000e+00
       21 -1    0    0  501  502 -0.0000000000e+00 -0.0000000000e+00 -6.7329213985e+01 6.7329213985e+01 0.0000000000e+00 0.0000e+00 1.0000e+00
       25  2    1    2    0    0 +0.0000000000e+00 +0.0000000000e+00 -9.3120507246e+00 1.2534637725e+02 1.2500000000e+02 0.0000e+00 0.0000e+00
      -15  1    3    3    0    0 -4.3041808742e+01 -5.9170189618e-01 -3.6828244102e+01 5.6678256004e+01 1.7770000000e+00 0.0000e+00 -1.0000e+00
       15  1    3    3    0    0 +4.7939972696e+01 -3.0185035016e+00 +3.4677418702e+01 5.9270848166e+01 1.7770000000e+00 0.0000e+00 -1.0000e+00
       22  1    3    3    0    0 -4.8981639536e+00 +3.6102053978e+00 -7.1612253245e+00 9.3972730767e+00 0.0000000000e+00 0.0000e+00 -1.0000e+00
<mgrwt>
<rscale>  2 0.12500000E+03</rscale>
<asrwt>0</asrwt>
<pdfrwt beam="1">  1       21 0.85319358E-02 0.12500000E+03</pdfrwt>
<pdfrwt beam="2">  1       21 0.99013549E-02 0.12500000E+03</pdfrwt>
<totfact> 0.88932412E+06</totfact>
</mgrwt>
</event>
<event>
 6      0 +4.1053447e-01 1.25000000e+02 7.54677100e-03 1.12640300e-01
       21 -1    0    0  502  501 +0.0000000000e+00 +0.0000000000e+00 +4.8983803764e+02 4.8983803764e+02 0.0000000000e+00 0.0000e+00 1.0000e+00
       21 -1    0    0  501  502 -0.0000000000e+00 -0.0000000000e+00 -7.9745746550e+00 7.9745746550e+00 0.0000000000e+00 0.0000e+00 1.0000e+00
       25  2    1    2    0    0 +0.0000000000e+00 +0.0000000000e+00 +4.8186346298e+02 4.9781261229e+02 1.2500000000e+02 0.0000e+00 0.0000e+00
      -15  1    3    3    0    0 +5.6960553421e+01 -1.0962669925e+01 +1.4852840719e+02 1.5946325674e+02 1.7770000000e+00 0.0000e+00 -1.0000e+00
       15  1    3    3    0    0 -5.6960979394e+01 +1.0962308880e+01 +3.3333438802e+02 3.3834848508e+02 1.7770000000e+00 0.0000e+00 -1.0000e+00
       22  1    3    3    0    0 +4.2597353484e-04 +3.6104516451e-04 +6.6776740648e-04 8.7047135068e-04 0.0000000000e+00 0.0000e+00 -1.0000e+00
<mgrwt>
<rscale>  2 0.12500000E+03</rscale>
<asrwt>0</asrwt>
<pdfrwt beam="1">  1       21 0.72034985E-01 0.12500000E+03</pdfrwt>
<pdfrwt beam="2">  1       21 0.11727319E-02 0.12500000E+03</pdfrwt>
<totfact> 0.45489085E+06</totfact>
</mgrwt>
</event>
<event>
 6      0 +4.1053447e-01 1.25000000e+02 7.54677100e-03 1.12640300e-01
       21 -1    0    0  502  501 +0.0000000000e+00 +0.0000000000e+00 +4.7175280039e+00 4.7175280039e+00 0.0000000000e+00 0.0000e+00 -1.0000e+00
       21 -1    0    0  501  502 -0.0000000000e+00 -0.0000000000e+00 -8.2802900094e+02 8.2802900094e+02 0.0000000000e+00 0.0000e+00 -1.0000e+00
       25  2    1    2    0    0 +0.0000000000e+00 +0.0000000000e+00 -8.2331147293e+02 8.3274652894e+02 1.2500000000e+02 0.0000e+00 0.0000e+00
      -15  1    3    3    0    0 -9.8295267920e+00 +2.1112666699e+01 -7.9750239114e+02 7.9784433688e+02 1.7770000000e+00 0.0000e+00 1.0000e+00
       15  1    3    3    0    0 +9.9423186930e+00 -2.0748849618e+01 -2.5090729493e+01 3.4089102319e+01 1.7770000000e+00 0.0000e+00 1.0000e+00
       22  1    3    3    0    0 -1.1279190108e-01 -3.6381708076e-01 -7.1835220857e-01 8.1308964867e-01 0.0000000000e+00 0.0000e+00 -1.0000e+00
<mgrwt>
<rscale>  2 0.12500000E+03</rscale>
<asrwt>0</asrwt>
<pdfrwt beam="1">  1       21 0.69375414E-03 0.12500000E+03</pdfrwt>
<pdfrwt beam="2">  1       21 0.12176897E+00 0.12500000E+03</pdfrwt>
<totfact> 0.26949144E+06</totfact>
</mgrwt>
</event>
<event>
 6      0 +4.1053447e-01 1.25000000e+02 7.54677100e-03 1.12640300e-01
       21 -1    0    0  502  501 +0.0000000000e+00 +0.0000000000e+00 +6.9255985213e+00 6.9255985213e+00 0.0000000000e+00 0.0000e+00 -1.0000e+00
       21 -1    0    0  501  502 -0.0000000000e+00 -0.0000000000e+00 -5.6403067374e+02 5.6403067374e+02 0.0000000000e+00 0.0000e+00 -1.0000e+00
       25  2    1    2    0    0 +0.0000000000e+00 +0.0000000000e+00 -5.5710507522e+02 5.7095627226e+02 1.2500000000e+02 0.0000e+00 0.0000e+00
      -15  1    3    3    0    0 -3.7049942017e+01 +4.1140660274e+01 -1.4634998079e+02 1.5648235280e+02 1.7770000000e+00 0.0000e+00 1.0000e+00
       15  1    3    3    0    0 +3.7052822500e+01 -4.1137378817e+01 -4.1073414653e+02 4.1445252134e+02 1.7770000000e+00 0.0000e+00 1.0000e+00
       22  1    3    3    0    0 -2.8804835550e-03 -3.2814569389e-03 -2.0947949486e-02 2.1398171249e-02 0.0000000000e+00 0.0000e+00 -1.0000e+00
<mgrwt>
<rscale>  2 0.12500000E+03</rscale>
<asrwt>0</asrwt>
<pdfrwt beam="1">  1       21 0.10184704E-02 0.12500000E+03</pdfrwt>
<pdfrwt beam="2">  1       21 0.82945684E-01 0.12500000E+03</pdfrwt>
<totfact> 0.40401776E+06</totfact>
</mgrwt>
</event>
<event>
 6      0 +4.1053447e-01 1.25000000e+02 7.54677100e-03 1.12640300e-01
       21 -1    0    0  502  501 +0.0000000000e+00 +0.0000000000e+00 +6.3300014569e+00 6.3300014569e+00 0.0000000000e+00 0.0000e+00 1.0000e+00
       21 -1    0    0  501  502 -0.0000000000e+00 -0.0000000000e+00 -6.1710096381e+02 6.1710096381e+02 0.0000000000e+00 0.0000e+00 1.0000e+00
       25  2    1    2    0    0 +0.0000000000e+00 +0.0000000000e+00 -6.1077096236e+02 6.2343096527e+02 1.2500000000e+02 0.0000e+00 0.0000e+00
      -15  1    3    3    0    0 +3.0278556449e+01 -3.4197101782e+01 -2.7674420595e+02 2.8049375395e+02 1.7770000000e+00 0.0000e+00 1.0000e+00
       15  1    3    3    0    0 -1.0648605642e+01 +4.0558670064e+01 -1.0642699051e+02 1.1440393593e+02 1.7770000000e+00 0.0000e+00 1.0000e+00
       22  1    3    3    0    0 -1.9629950807e+01 -6.3615682821e+00 -2.2759976599e+02 2.2853327548e+02 0.0000000000e+00 0.0000e+00 1.0000e+00
<mgrwt>
<rscale>  2 0.12500000E+03</rscale>
<asrwt>0</asrwt>
<pdfrwt beam="1">  1       21 0.93088329E-03 0.12500000E+03</pdfrwt>
<pdfrwt beam="2">  1       21 0.90750072E-01 0.12500000E+03</pdfrwt>
<totfact> 0.37069884E+06</totfact>
</mgrwt>
</event>
<event>
 6      0 +4.1053447e-01 1.25000000e+02 7.54677100e-03 1.12640300e-01
       21 -1    0    0  502  501 +0.0000000000e+00 +0.0000000000e+00 +4.4812531975e+01 4.4812531975e+01 0.0000000000e+00 0.0000e+00 1.0000e+00
       21 -1    0    0  501  502 -0.0000000000e+00 -0.0000000000e+00 -8.7168696520e+01 8.7168696520e+01 0.0000000000e+00 0.0000e+00 1.0000e+00
       25  2    1    2    0    0 +0.0000000000e+00 +0.0000000000e+00 -4.2356164545e+01 1.3198122849e+02 1.2500000000e+02 0.0000e+00 0.0000e+00
      -15  1    3    3    0    0 -4.1301936980e+01 +1.5288272542e+00 +2.8274354464e+01 5.0107725557e+01 1.7770000000e+00 0.0000e+00 -1.0000e+00
       15  1    3    3    0    0 +4.1085716873e+01 -1.4377266339e+00 -7.0403627490e+01 8.1547113264e+01 1.7770000000e+00 0.0000e+00 -1.0000e+00
       22  1    3    3    0    0 +2.1622010692e-01 -9.1100620379e-02 -2.2689152060e-01 3.2638967476e-01 0.0000000000e+00 0.0000e+00 -1.0000e+00
<mgrwt>
<rscale>  2 0.12500000E+03</rscale>
<asrwt>0</asrwt>
<pdfrwt beam="1">  1       21 0.65900782E-02 0.12500000E+03</pdfrwt>
<pdfrwt beam="2">  1       21 0.12818926E-01 0.12500000E+03</pdfrwt>
<totfact> 0.87739576E+06</totfact>
</mgrwt>
</event>
<event>
 6      0 +4.1053447e-01 1.25000000e+02 7.54677100e-03 1.12640300e-01
       21 -1    0    0  502  501 +0.0000000000e+00 +0.0000000000e+00 +4.3877267474e+01 4.3877267474e+01 0.0000000000e+00 0.0000e+00 -1.0000e+00
       21 -1    0    0  501  502 -0.0000000000e+00 -0.0000000000e+00 -8.9026738101e+01 8.9026738101e+01 0.0000000000e+00 0.0000e+00 -1.0000e+00
       25  2    1    2    0    0 +0.0000000000e+00 +0.0000000000e+00 -4.5149470627e+01 1.3290400558e+02 1.2500000000e+02 0.0000e+00 0.0000e+00
      -15  1    3    3    0    0 +6.2184150991e+01 +5.4480580341e-01 -1.6202453548e+01 6.4287189064e+01 1.7770000000e+00 0.0000e+00 1.0000e+00
       15  1    3    3    0    0 -6.2184187463e+01 -5.4487565205e-01 -2.8946993444e+01 6.8616734245e+01 1.7770000000e+00 0.0000e+00 1.0000e+00
       22  1    3    3    0    0 +3.6472345138e-05 +6.9848633866e-05 -2.3632383385e-05 8.2265139381e-05 0.0000000000e+00 0.0000e+00 -1.0000e+00
<mgrwt>
<rscale>  2 0.12500000E+03</rscale>
<asrwt>0</asrwt>
<pdfrwt beam="1">  1       21 0.64525395E-02 0.12500000E+03</pdfrwt>
<pdfrwt beam="2">  1       21 0.13092167E-01 0.12500000E+03</pdfrwt>
<totfact> 0.87575098E+06</totfact>
</mgrwt>
</event>
<event>
 6      0 +4.1053447e-01 1.25000000e+02 7.54677100e-03 1.12640300e-01
       21 -1    0    0  502  501 +0.0000000000e+00 +0.0000000000e+00 +7.3874841196e+00 7.3874841196e+00 0.0000000000e+00 0.0000e+00 -1.0000e+00
       21 -1    0    0  501  502 -0.0000000000e+00 -0.0000000000e+00 -5.2876594206e+02 5.2876594206e+02 0.0000000000e+00 0.0000e+00 -1.0000e+00
       25  2    1    2    0    0 +0.0000000000e+00 +0.0000000000e+00 -5.2137845794e+02 5.3615342618e+02 1.2500000000e+02 0.0000e+00 0.0000e+00
      -15  1    3    3    0    0 +3.9126563538e+01 -4.2034601343e+01 -1.5526298968e+02 1.6555225573e+02 1.7770000000e+00 0.0000e+00 1.0000e+00
       15  1    3    3    0    0 -3.9132475900e+01 +4.2047150224e+01 -3.6590585302e+02 3.7039109670e+02 1.7770000000e+00 0.0000e+00 1.0000e+00
       22  1    3    3    0    0 +5.9123610789e-03 -1.2548881203e-02 -2.0961523126e-01 2.1007373850e-01 0.0000000000e+00 0.0000e+00 -1.0000e+00
<mgrwt>
<rscale>  2 0.12500000E+03</rscale>
<asrwt>0</asrwt>
<pdfrwt beam="1">  1       21 0.10863946E-02 0.12500000E+03</pdfrwt>
<pdfrwt beam="2">  1       21 0.77759705E-01 0.12500000E+03</pdfrwt>
<totfact> 0.42739389E+06</totfact>
</mgrwt>
</event>
<event>
 6      0 +4.1053447e-01 1.25000000e+02 7.54677100e-03 1.12640300e-01
       21 -1    0    0  502  501 +0.0000000000e+00 +0.0000000000e+00 +1.0184341699e+02 1.0184341699e+02 0.0000000000e+00 0.0000e+00 1.0000e+00
       21 -1    0    0  501  502 -0.0000000000e+00 -0.0000000000e+00 -3.8355449133e+01 3.8355449133e+01 0.0000000000e+00 0.0000e+00 1.0000e+00
       25  2    1    2    0    0 +0.0000000000e+00 +0.0000000000e+00 +6.3487967861e+01 1.4019886613e+02 1.2500000000e+02 0.0000e+00 0.0000e+00
      -15  1    3    3    0    0 -3.5035444334e+00 +6.0965093161e+01 +1.6984735320e+01 6.3408645866e+01 1.7770000000e+00 0.0000e+00 1.0000e+00
       15  1    3    3    0    0 +3.5207087303e+00 -6.0793752495e+01 +4.6451109289e+01 7.6610306197e+01 1.7770000000e+00 0.0000e+00 1.0000e+00
       22  1    3    3    0    0 -1.7164296827e-02 -1.7134066586e-01 +5.2123249719e-02 1.7991406289e-01 0.0000000000e+00 0.0000e+00 -1.0000e+00
<mgrwt>
<rscale>  2 0.12500000E+03</rscale>
<asrwt>0</asrwt>
<pdfrwt beam="1">  1       21 0.14976973E-01 0.12500000E+03</pdfrwt>
<pdfrwt beam="2">  1       21 0.56405072E-02 0.12500000E+03</pdfrwt>
<totfact> 0.86305920E+06</totfact>
</mgrwt>
</event>
<event>
 6      0 +4.1053447e-01 1.25000000e+02 7.54677100e-03 1.12640300e-01
       21 -1    0    0  502  501 +0.0000000000e+00 +0.0000000000e+00 +2.2734890531e+02 2.2734890531e+02 0.0000000000e+00 0.0000e+00 1.0000e+00
       21 -1    0    0  501  502 -0.0000000000e+00 -0.0000000000e+00 -1.7181740966e+01 1.7181740966e+01 0.0000000000e+00 0.0000e+00 1.0000e+00
       25  2    1    2    0    0 +0.0000000000e+00 +0.0000000000e+00 +2.1016716435e+02 2.4453064628e+02 1.2500000000e+02 0.0000e+00 0.0000e+00
      -15  1    3    3    0    0 +3.0257415005e+01 +5.2371012776e+01 +7.5166392644e+01 9.6495484112e+01 1.7770000000e+00 0.0000e+00 1.0000e+00
       15  1    3    3    0    0 -3.0312143132e+01 -5.2463449924e+01 +1.3487042806e+02 1.4786625610e+02 1.7770000000e+00 0.0000e+00 1.0000e+00
       22  1    3    3    0    0 +5.4728126725e-02 +9.2437148115e-02 +1.3034365588e-01 1.6890607697e-01 0.0000000000e+00 0.0000e+00 -1.0000e+00
<mgrwt>
<rscale>  2 0.12500000E+03</rscale>
<asrwt>0</asrwt>
<pdfrwt beam="1">  1       21 0.33433661E-01 0.12500000E+03</pdfrwt>
<pdfrwt beam="2">  1       21 0.25267267E-02 0.12500000E+03</pdfrwt>
<totfact> 0.70711563E+06</totfact>
</mgrwt>
</event>
<event>
 6      0 +4.1053447e-01 1.25000000e+02 7.54677100e-03 1.12640300e-01
       21 -1    0    0  502  501 +0.0000000000e+00 +0.0000000000e+00 +1.9846393397e+02 1.9846393397e+02 0.0000000000e+00 0.0000e+00 -1.0000e+00
       21 -1    0    0  501  502 -0.0000000000e+00 -0.0000000000e+00 -1.9682417465e+01 1.9682417465e+01 0.0000000000e+00 0.0000e+00 -1.0000e+00
       25  2    1    2    0    0 +0.0000000000e+00 +0.0000000000e+00 +1.7878151650e+02 2.1814635143e+02 1.2500000000e+02 0.0000e+00 0.0000e+00
      -15  1    3    3    0    0 +6.0406234644e+01 +1.0712335497e+01 +1.0982334644e+02 1.2580934968e+02 1.7770000000e+00 0.0000e+00 1.0000e+00
       15  1    3    3    0    0 -5.4996734238e+01 -1.0131251341e+01 +6.2220491367e+01 8.3676940106e+01 1.7770000000e+00 0.0000e+00 1.0000e+00
       22  1    3    3    0    0 -5.4095004059e+00 -5.8108415656e-01 +6.7376786932e+00 8.6600616402e+00 0.0000000000e+00 0.0000e+00 -1.0000e+00
<mgrwt>
<rscale>  2 0.12500000E+03</rscale>
<asrwt>0</asrwt>
<pdfrwt beam="1">  1       21 0.29185872E-01 0.12500000E+03</pdfrwt>
<pdfrwt beam="2">  1       21 0.28944733E-02 0.12500000E+03</pdfrwt>
<totfact> 0.74248167E+06</totfact>
</mgrwt>
</event>
<event>
 6      0 +4.1053447e-01 1.25000000e+02 7.54677100e-03 1.12640300e-01
       21 -1    0    0  502  501 +0.0000000000e+00 +0.0000000000e+00 +1.8460207871e+02 1.8460207871e+02 0.0000000000e+00 0.0000e+00 1.0000e+00
       21 -1    0    0  501  502 -0.0000000000e+00 -0.0000000000e+00 -2.1160379273e+01 2.1160379273e+01 0.0000000000e+00 0.0000e+00 1.0000e+00
       25  2    1    2    0    0 +0.0000000000e+00 +0.0000000000e+00 +1.6344169943e+02 2.0576245798e+02 1.2500000000e+02 0.0000e+00 0.0000e+00
      -15  1    3    3    0    0 -6.1240410518e+00 +6.2138677191e+01 +7.8282920304e+01 1.0015034909e+02 1.7770000000e+00 0.0000e+00 -1.0000e+00
       15  1    3    3    0    0 +6.1240808597e+00 -6.2138759977e+01 +8.5158704666e+01 1.0561199064e+02 1.7770000000e+00 0.0000e+00 -1.0000e+00
       22  1    3    3    0    0 -3.9807849642e-05 +8.2785387266e-05 +7.4452226679e-05 1.1824220607e-04 0.0000000000e+00 0.0000e+00 1.0000e+00
<mgrwt>
<rscale>  2 0.12500000E+03</rscale>
<asrwt>0</asrwt>
<pdfrwt beam="1">  1       21 0.27147364E-01 0.12500000E+03</pdfrwt>
<pdfrwt beam="2">  1       21 0.31118206E-02 0.12500000E+03</pdfrwt>
<totfact> 0.75986422E+06</totfact>
</mgrwt>
</event>
<event>
 6      0 +4.1053447e-01 1.25000000e+02 7.54677100e-03 1.12640300e-01
       21 -1    0    0  502  501 +0.0000000000e+00 +0.0000000000e+00 +2.0588431848e+00 2.0588431848e+00 0.0000000000e+00 0.0000e+00 1.0000e+00
       21 -1    0    0  501  502 -0.0000000000e+00 -0.0000000000e+00 -1.8973033152e+03 1.8973033152e+03 0.0000000000e+00 0.0000e+00 1.0000e+00
       25  2    1    2    0    0 +0.0000000000e+00 +0.0000000000e+00 -1.8952444720e+03 1.8993621584e+03 1.2500000000e+02 0.0000e+00 0.0000e+00
      -15  1    3    3    0    0 -4.8758438650e+01 -3.2009069590e+01 -1.2877729613e+03 1.2890943811e+03 1.7770000000e+00 0.0000e+00 -1.0000e+00
       15  1    3    3    0    0 +4.8758438620e+01 +3.2009069581e+01 -6.0747150340e+02 6.1026776995e+02 1.7770000000e+00 0.0000e+00 -1.0000e+00
       22  1    3    3    0    0 +2.9716429691e-08 +8.8452353643e-09 -3.0898524561e-07 3.1053693241e-07 0.0000000000e+00 0.0000e+00 1.0000e+00
<mgrwt>
<rscale>  2 0.12500000E+03</rscale>
<asrwt>0</asrwt>
<pdfrwt beam="1">  1       21 0.30277125E-03 0.12500000E+03</pdfrwt>
<pdfrwt beam="2">  1       21 0.27901501E+00 0.12500000E+03</pdfrwt>
<totfact> 0.61700528E+05</totfact>
</mgrwt>
</event>
<event>
 6      0 +4.1053447e-01 1.25000000e+02 7.54677100e-03 1.12640300e-01
       21 -1    0    0  502  501 +0.0000000000e+00 +0.0000000000e+00 +6.9979162720e+01 6.9979162720e+01 0.0000000000e+00 0.0000e+00 1.0000e+00
       21 -1    0    0  501  502 -0.0000000000e+00 -0.0000000000e+00 -5.5820187727e+01 5.5820187727e+01 0.0000000000e+00 0.0000e+00 1.0000e+00
       25  2    1    2    0    0 +0.0000000000e+00 +0.0000000000e+00 +1.4158974993e+01 1.2579935045e+02 1.2500000000e+02 0.0000e+00 0.0000e+00
      -15  1    3    3    0    0 +4.5203853834e+01 -2.8933965261e+01 +3.8769684437e+01 6.6232989571e+01 1.7770000000e+00 0.0000e+00 1.0000e+00
       15  1    3    3    0    0 -4.5458408221e+01 +2.8345259370e+01 -2.4374142434e+01 5.8882740724e+01 1.7770000000e+00 0.0000e+00 1.0000e+00
       22  1    3    3    0    0 +2.5455438686e-01 +5.8870589098e-01 -2.3656701039e-01 6.8362015209e-01 0.0000000000e+00 0.0000e+00 -1.0000e+00
<mgrwt>
<rscale>  2 0.12500000E+03</rscale>
<asrwt>0</asrwt>
<pdfrwt beam="1">  1       21 0.10291053E-01 0.12500000E+03</pdfrwt>
<pdfrwt beam="2">  1       21 0.82088511E-02 0.12500000E+03</pdfrwt>
<totfact> 0.88848217E+06</totfact>
</mgrwt>
</event>
<event>
 6      0 +4.1053447e-01 1.25000000e+02 7.54677100e-03 1.12640300e-01
       21 -1    0    0  502  501 +0.0000000000e+00 +0.0000000000e+00 +1.0813834040e+03 1.0813834040e+03 0.0000000000e+00 0.0000e+00 -1.0000e+00
       21 -1    0    0  501  502 -0.0000000000e+00 -0.0000000000e+00 -3.6122710831e+00 3.6122710831e+00 0.0000000000e+00 0.0000e+00 -1.0000e+00
       25  2    1    2    0    0 +0.0000000000e+00 +0.0000000000e+00 +1.0777711329e+03 1.0849956751e+03 1.2500000000e+02 0.0000e+00 0.0000e+00
      -15  1    3    3    0    0 +1.7809417413e+00 +4.1898715278e+01 +1.3693493964e+02 1.4322363463e+02 1.7770000000e+00 0.0000e+00 1.0000e+00
       15  1    3    3    0    0 -1.7809653717e+00 -4.1898698510e+01 +9.4083587830e+02 9.4177172415e+02 1.7770000000e+00 0.0000e+00 1.0000e+00
       22  1    3    3    0    0 +2.3630464330e-05 -1.6767810538e-05 +3.1243291289e-04 3.1377361803e-04 0.0000000000e+00 0.0000e+00 1.0000e+00
<mgrwt>
<rscale>  2 0.12500000E+03</rscale>
<asrwt>0</asrwt>
<pdfrwt beam="1">  1       21 0.15902675E+00 0.12500000E+03</pdfrwt>
<pdfrwt beam="2">  1       21 0.53121709E-03 0.12500000E+03</pdfrwt>
<totfact> 0.18796956E+06</totfact>
</mgrwt>
</event>
<event>
 6      0 +4.1053447e-01 1.25000000e+02 7.54677100e-03 1.12640300e-01
       21 -1    0    0  502  501 +0.0000000000e+00 +0.0000000000e+00 +1.1790528131e+01 1.1790528131e+01 0.0000000000e+00 0.0000e+00 -1.0000e+00
       21 -1    0    0  501  502 -0.0000000000e+00 -0.0000000000e+00 -3.3130407362e+02 3.3130407362e+02 0.0000000000e+00 0.0000e+00 -1.0000e+00
       25  2    1    2    0    0 +0.0000000000e+00 +0.0000000000e+00 -3.1951354549e+02 3.4309460175e+02 1.2500000000e+02 0.0000e+00 0.0000e+00
      -15  1    3    3    0    0 +1.9674251625e+01 +1.1768067859e+01 -2.5074871863e+02 2.5180079671e+02 1.7770000000e+00 0.0000e+00 -1.0000e+00
       15  1    3    3    0    0 -2.3869173190e+01 -1.3925057042e+01 -5.9768245227e+00 2.8328868717e+01 1.7770000000e+00 0.0000e+00 -1.0000e+00
       22  1    3    3    0    0 +4.1949215652e+00 +2.1569891826e+00 -6.2788002349e+01 6.2964936340e+01 0.0000000000e+00 0.0000e+00 -1.0000e+00
<mgrwt>
<rscale>  2 0.12500000E+03</rscale>
<asrwt>0</asrwt>
<pdfrwt beam="1">  1       21 0.17339012E-02 0.12500000E+03</pdfrwt>
<pdfrwt beam="2">  1       21 0.48721186E-01 0.12500000E+03</pdfrwt>
<totfact> 0.59241654E+06</totfact>
</mgrwt>
</event>
<event>
 6      0 +4.1053447e-01 1.25000000e+02 7.54677100e-03 1.12640300e-01
       21 -1    0    0  502  501 +0.0000000000e+00 +0.0000000000e+00 +1.7590410314e+02 1.7590410314e+02 0.0000000000e+00 0.0000e+00 1.0000e+00
       21 -1    0    0  501  502 -0.0000000000e+00 -0.0000000000e+00 -2.2206702006e+01 2.2206702006e+01 0.0000000000e+00 0.0000e+00 1.0000e+00
       25  2    1    2    0    0 +0.0000000000e+00 +0.0000000000e+00 +1.5369740113e+02 1.9811080514e+02 1.2500000000e+02 0.0000e+00 0.0000e+00
      -15  1    3    3    0    0 +3.3168073375e+01 +2.1906581850e+01 +4.5992983991e-01 3.9791816799e+01 1.7770000000e+00 0.0000e+00 -1.0000e+00
       15  1    3    3    0    0 -3.3167885427e+01 -2.1906425937e+01 +1.5323689826e+02 1.5831836545e+02 1.7770000000e+00 0.0000e+00 -1.0000e+00
       22  1    3    3    0    0 -1.8794820605e-04 -1.5591334741e-04 +5.7303276278e-04 6.2289649805e-04 0.0000000000e+00 0.0000e+00 1.0000e+00
<mgrwt>
<rscale>  2 0.12500000E+03</rscale>
<asrwt>0</asrwt>
<pdfrwt beam="1">  1       21 0.25868250E-01 0.12500000E+03</pdfrwt>
<pdfrwt beam="2">  1       21 0.32656916E-02 0.12500000E+03</pdfrwt>
<totfact> 0.77095486E+06</totfact>
</mgrwt>
</event>
<event>
 6      0 +4.1053447e-01 1.25000000e+02 7.54677100e-03 1.12640300e-01
       21 -1    0    0  502  501 +0.0000000000e+00 +0.0000000000e+00 +7.4016432652e+00 7.4016432652e+00 0.0000000000e+00 0.0000e+00 1.0000e+00
       21 -1    0    0  501  502 -0.0000000000e+00 -0.0000000000e+00 -5.2775442697e+02 5.2775442697e+02 0.0000000000e+00 0.0000e+00 1.0000e+00
       25  2    1    2    0    0 +0.0000000000e+00 +0.0000000000e+00 -5.2035278370e+02 5.3515607023e+02 1.2500000000e+02 0.0000e+00 0.0000e+00
      -15  1    3    3    0    0 +2.4939944176e+01 -5.5608364000e+01 -3.1900288279e+02 3.2477728972e+02 1.7770000000e+00 0.0000e+00 1.0000e+00
       15  1    3    3    0    0 -2.4939944017e+01 +5.5608363668e+01 -2.0134989959e+02 2.1037877914e+02 1.7770000000e+00 0.0000e+00 1.0000e+00
       22  1    3    3    0    0 -1.5955184867e-07 +3.3234432033e-07 -1.3326622139e-06 1.3827140399e-06 0.0000000000e+00 0.0000e+00 -1.0000e+00
<mgrwt>
<rscale>  2 0.12500000E+03</rscale>
<asrwt>0</asrwt>
<pdfrwt beam="1">  1       21 0.10884769E-02 0.12500000E+03</pdfrwt>
<pdfrwt beam="2">  1       21 0.77610948E-01 0.12500000E+03</pdfrwt>
<totfact> 0.42808292E+06</totfact>
</mgrwt>
</event>
<event>
 6      0 +4.1053447e-01 1.25000000e+02 7.54677100e-03 1.12640300e-01
       21 -1    0    0  502  501 +0.0000000000e+00 +0.0000000000e+00 +6.9654410286e+01 6.9654410286e+01 0.0000000000e+00 0.0000e+00 1.0000e+00
       21 -1    0    0  501  502 -0.0000000000e+00 -0.0000000000e+00 -5.6080440334e+01 5.6080440334e+01 0.0000000000e+00 0.0000e+00 1.0000e+00
       25  2    1    2    0    0 +0.0000000000e+00 +0.0000000000e+00 +1.3573969952e+01 1.2573485062e+02 1.2500000000e+02 0.0000e+00 0.0000e+00
      -15  1    3    3    0    0 +3.8734256091e+01 -2.5017074034e+01 +4.9187985262e+01 6.7444882766e+01 1.7770000000e+00 0.0000e+00 1.0000e+00
       15  1    3    3    0    0 -3.8734280875e+01 +2.5017104274e+01 -3.5614014707e+01 5.8289928750e+01 1.7770000000e+00 0.0000e+00 1.0000e+00
       22  1    3    3    0    0 +2.4783986701e-05 -3.0240398699e-05 -6.0241248206e-07 3.9103588211e-05 0.0000000000e+00 0.0000e+00 -1.0000e+00
<mgrwt>
<rscale>  2 0.12500000E+03</rscale>
<asrwt>0</asrwt>
<pdfrwt beam="1">  1       21 0.10243296E-01 0.12500000E+03</pdfrwt>
<pdfrwt beam="2">  1       21 0.82471235E-02 0.12500000E+03</pdfrwt>
<totfact> 0.88860016E+06</totfact>
</mgrwt>
</event>
<event>
 6      0 +4.1053447e-01 1.25000000e+02 7.54677100e-03 1.12640300e-01
       21 -1    0    0  502  501 +0.0000000000e+00 +0.0000000000e+00 +3.1723194526e+02 3.1723194526e+02 0.0000000000e+00 0.0000e+00 -1.0000e+00
       21 -1    0    0  501  502 -0.0000000000e+00 -0.0000000000e+00 -1.2313545525e+01 1.2313545525e+01 0.0000000000e+00 0.0000e+00 -1.0000e+00
       25  2    1    2    0    0 +0.0000000000e+00 +0.0000000000e+00 +3.0491839974e+02 3.2954549079e+02 1.2500000000e+02 0.0000e+00 0.0000e+00
      -15  1    3    3    0    0 +4.6694495301e+01 +5.9555825036e+00 +2.6075015802e+02 2.6497103142e+02 1.7770000000e+00 0.0000e+00 1.0000e+00
       15  1    3    3    0    0 -4.6694580848e+01 -5.9555808781e+00 +4.4167863422e+01 6.4574071519e+01 1.7770000000e+00 0.0000e+00 1.0000e+00
       22  1    3    3    0    0 +8.5547114757e-05 -1.6255424595e-06 +3.7829761905e-04 3.8785311628e-04 0.0000000000e+00 0.0000e+00 -1.0000e+00
<mgrwt>
<rscale>  2 0.12500000E+03</rscale>
<asrwt>0</asrwt>
<pdfrwt beam="1">  1       21 0.46651752E-01 0.12500000E+03</pdfrwt>
<pdfrwt beam="2">  1       21 0.18108157E-02 0.12500000E+03</pdfrwt>
<totfact> 0.60671951E+06</totfact>
</mgrwt>
</event>
<event>
 6      0 +4.1053447e-01 1.25000000e+02 7.54677100e-03 1.12640300e-01
       21 -1    0    0  502  501 +0.0000000000e+00 +0.0000000000e+00 +3.8288718099e+01 3.8288718099e+01 0.0000000000e+00 0.0000e+00 1.0000e+00
       21 -1    0    0  501  502 -0.0000000000e+00 -0.0000000000e+00 -1.0202091357e+02 1.0202091357e+02 0.0000000000e+00 0.0000e+00 1.0000e+00
       25  2    1    2    0    0 +0.0000000000e+00 +0.0000000000e+00 -6.3732195474e+01 1.4030963167e+02 1.2500000000e+02 0.0000e+00 0.0000e+00
      -15  1    3    3    0    0 -1.1348034817e+01 +3.3433034469e+01 -8.9717944949e+01 9.6431390443e+01 1.7770000000e+00 0.0000e+00 -1.0000e+00
       15  1    3    3    0    0 +1.1347243982e+01 -3.3354268986e+01 +2.5913896293e+01 4.3771622722e+01 1.7770000000e+00 0.0000e+00 -1.0000e+00
       22  1    3    3    0    0 +7.9083483229e-04 -7.8765482676e-02 +7.1853179618e-02 1.0661850732e-01 0.0000000000e+00 0.0000e+00 -1.0000e+00
<mgrwt>
<rscale>  2 0.12500000E+03</rscale>
<asrwt>0</asrwt>
<pdfrwt beam="1">  1       21 0.56306939E-02 0.12500000E+03</pdfrwt>
<pdfrwt beam="2">  1       21 0.15003075E-01 0.12500000E+03</pdfrwt>
<totfact> 0.86286760E+06</totfact>
</mgrwt>
</event>
<event>
 6      0 +4.1053447e-01 1.25000000e+02 7.54677100e-03 1.12640300e-01
       21 -1    0    0  502  501 +0.0000000000e+00 +0.0000000000e+00 +5.6001499336e+02 5.6001499336e+02 0.0000000000e+00 0.0000e+00 1.0000e+00
       21 -1    0    0  501  502 -0.0000000000e+00 -0.0000000000e+00 -6.9752596740e+00 6.9752596740e+00 0.0000000000e+00 0.0000e+00 1.0000e+00
       25  2    1    2    0    0 +0.0000000000e+00 +0.0000000000e+00 +5.5303973368e+02 5.6699025303e+02 1.2500000000e+02 0.0000e+00 0.0000e+00
      -15  1    3    3    0    0 +2.4170748088e+01 -1.3322961214e+01 +5.3074827903e+02 5.3146836197e+02 1.7770000000e+00 0.0000e+00 1.0000e+00
       15  1    3    3    0    0 -2.4170570483e+01 +1.3323110069e+01 +2.2290982027e+01 3.5521364673e+01 1.7770000000e+00 0.0000e+00 1.0000e+00
       22  1    3    3    0    0 -1.7760489412e-04 -1.4885534006e-04 +4.7259155722e-04 5.2634987474e-04 0.0000000000e+00 0.0000e+00 1.0000e+00
<mgrwt>
<rscale>  2 0.12500000E+03</rscale>
<asrwt>0</asrwt>
<pdfrwt beam="1">  1       21 0.82355115E-01 0.12500000E+03</pdfrwt>
<pdfrwt beam="2">  1       21 0.10257739E-02 0.12500000E+03</pdfrwt>
<totfact> 0.40662483E+06</totfact>
</mgrwt>
</event>
<event>
 6      0 +4.1053447e-01 1.25000000e+02 7.54677100e-03 1.12640300e-01
       21 -1    0    0  502  501 +0.0000000000e+00 +0.0000000000e+00 +3.8474067990e+01 3.8474067990e+01 0.0000000000e+00 0.0000e+00 -1.0000e+00
       21 -1    0    0  501  502 -0.0000000000e+00 -0.0000000000e+00 -1.0152942499e+02 1.0152942499e+02 0.0000000000e+00 0.0000e+00 -1.0000e+00
       25  2    1    2    0    0 +0.0000000000e+00 +0.0000000000e+00 -6.3055356998e+01 1.4000349298e+02 1.2500000000e+02 0.0000e+00 0.0000e+00
      -15  1    3    3    0    0 -3.5675144071e+01 -4.1722250816e+01 -6.4934380681e+01 8.5047596327e+01 1.7770000000e+00 0.0000e+00 -1.0000e+00
       15  1    3    3    0    0 +3.5675143966e+01 +4.1722250711e+01 +1.8790236719e+00 5.4955896502e+01 1.7770000000e+00 0.0000e+00 -1.0000e+00
       22  1    3    3    0    0 +1.0463220136e-07 +1.0477814533e-07 +1.1975510230e-08 1.4855897868e-07 0.0000000000e+00 0.0000e+00 -1.0000e+00
<mgrwt>
<rscale>  2 0.12500000E+03</rscale>
<asrwt>0</asrwt>
<pdfrwt beam="1">  1       21 0.56579512E-02 0.12500000E+03</pdfrwt>
<pdfrwt beam="2">  1       21 0.14930798E-01 0.12500000E+03</pdfrwt>
<totfact> 0.86339706E+06</totfact>
</mgrwt>
</event>
<event>
 6      0 +4.1053447e-01 1.25000000e+02 7.54677100e-03 1.12640300e-01
       21 -1    0    0  502  501 +0.0000000000e+00 +0.0000000000e+00 +8.9853683296e+01 8.9853683296e+01 0.0000000000e+00 0.0000e+00 1.0000e+00
       21 -1    0    0  501  502 -0.0000000000e+00 -0.0000000000e+00 -4.3473454362e+01 4.3473454362e+01 0.0000000000e+00 0.0000e+00 1.0000e+00
       25  2    1    2    0    0 +0.0000000000e+00 +0.0000000000e+00 +4.6380228935e+01 1.3332713766e+02 1.2500000000e+02 0.0000e+00 0.0000e+00
      -15  1    3    3    0    0 -5.9184898940e+01 +1.9862125398e+01 +2.5744653098e+01 6.7552210770e+01 1.7770000000e+00 0.0000e+00 -1.0000e+00
       15  1    3    3    0    0 +5.9184898940e+01 -1.9862125398e+01 +2.0635575836e+01 6.5774926887e+01 1.7770000000e+00 0.0000e+00 -1.0000e+00
       22  1    3    3    0    0 -5.4790418085e-10 -1.1503926793e-11 +6.9869039543e-11 5.5246087138e-10 0.0000000000e+00 0.0000e+00 -1.0000e+00
<mgrwt>
<rscale>  2 0.12500000E+03</rscale>
<asrwt>0</asrwt>
<pdfrwt beam="1">  1       21 0.13213777E-01 0.12500000E+03</pdfrwt>
<pdfrwt beam="2">  1       21 0.63931550E-02 0.12500000E+03</pdfrwt>
<totfact> 0.87500108E+06</totfact>
</mgrwt>
</event>
<event>
 6      0 +4.1053447e-01 1.25000000e+02 7.54677100e-03 1.12640300e-01
       21 -1    0    0  502  501 +0.0000000000e+00 +0.0000000000e+00 +1.5163851878e+01 1.5163851878e+01 0.0000000000e+00 0.0000e+00 1.0000e+00
       21 -1    0    0  501  502 -0.0000000000e+00 -0.0000000000e+00 -2.5760275367e+02 2.5760275367e+02 0.0000000000e+00 0.0000e+00 1.0000e+00
       25  2    1    2    0    0 +0.0000000000e+00 +0.0000000000e+00 -2.4243890179e+02 2.7276660555e+02 1.2500000000e+02 0.0000e+00 0.0000e+00
      -15  1    3    3    0    0 -5.0476469220e+00 +1.7077065431e+01 +9.4489244371e+00 2.0237213376e+01 1.7770000000e+00 0.0000e+00 -1.0000e+00
       15  1    3    3    0    0 +5.0480155435e+00 -1.7082647974e+01 -2.5188845443e+02 2.5252376230e+02 1.7770000000e+00 0.0000e+00 -1.0000e+00
       22  1    3    3    0    0 -3.6862155807e-04 +5.5825423421e-03 +6.2821431869e-04 5.6298591542e-03 0.0000000000e+00 0.0000e+00 -1.0000e+00
<mgrwt>
<rscale>  2 0.12500000E+03</rscale>
<asrwt>0</asrwt>
<pdfrwt beam="1">  1       21 0.22299783E-02 0.12500000E+03</pdfrwt>
<pdfrwt beam="2">  1       21 0.37882756E-01 0.12500000E+03</pdfrwt>
<totfact> 0.67161585E+06</totfact>
</mgrwt>
</event>
<event>
 6      0 +4.1053447e-01 1.25000000e+02 7.54677100e-03 1.12640300e-01
       21 -1    0    0  502  501 +0.0000000000e+00 +0.0000000000e+00 +4.9799092199e+01 4.9799092199e+01 0.0000000000e+00 0.0000e+00 -1.0000e+00
       21 -1    0    0  501  502 -0.0000000000e+00 -0.0000000000e+00 -7.8440184901e+01 7.8440184901e+01 0.0000000000e+00 0.0000e+00 -1.0000e+00
       25  2    1    2    0    0 +0.0000000000e+00 +0.0000000000e+00 -2.8641092702e+01 1.2823927710e+02 1.2500000000e+02 0.0000e+00 0.0000e+00
      -15  1    3    3    0    0 +7.0566881720e-01 -4.5423735833e+01 -2.4445701607e+01 5.1619413030e+01 1.7770000000e+00 0.0000e+00 -1.0000e+00
       15  1    3    3    0    0 +8.6711594307e+00 +5.4871285151e+01 -1.7027968921e+01 5.8130511735e+01 1.7770000000e+00 0.0000e+00 -1.0000e+00
       22  1    3    3    0    0 -9.3768282479e+00 -9.4475493189e+00 +1.2832577826e+01 1.8489352335e+01 0.0000000000e+00 0.0000e+00 -1.0000e+00
<mgrwt>
<rscale>  2 0.12500000E+03</rscale>
<asrwt>0</asrwt>
<pdfrwt beam="1">  1       21 0.73233960E-02 0.12500000E+03</pdfrwt>
<pdfrwt beam="2">  1       21 0.11535321E-01 0.12500000E+03</pdfrwt>
<totfact> 0.88415349E+06</totfact>
</mgrwt>
</event>
<event>
 6      0 +4.1053447e-01 1.25000000e+02 7.54677100e-03 1.12640300e-01
       21 -1    0    0  502  501 +0.0000000000e+00 +0.0000000000e+00 +1.9436595825e+02 1.9436595825e+02 0.0000000000e+00 0.0000e+00 -1.0000e+00
       21 -1    0    0  501  502 -0.0000000000e+00 -0.0000000000e+00 -2.0097397894e+01 2.0097397894e+01 0.0000000000e+00 0.0000e+00 -1.0000e+00
       25  2    1    2    0    0 +0.0000000000e+00 +0.0000000000e+00 +1.7426856035e+02 2.1446335614e+02 1.2500000000e+02 0.0000e+00 0.0000e+00
      -15  1    3    3    0    0 -5.0448618285e+01 -8.5489823132e-01 +1.5034354554e+02 1.5859424123e+02 1.7770000000e+00 0.0000e+00 1.0000e+00
       15  1    3    3    0    0 +5.0448618141e+01 +8.5489822277e-01 +2.3925014743e+01 5.5869114748e+01 1.7770000000e+00 0.0000e+00 1.0000e+00
       22  1    3    3    0    0 +1.4420788693e-07 +8.5509768914e-09 +6.9513224214e-08 1.6031569542e-07 0.0000000000e+00 0.0000e+00 -1.0000e+00
<mgrwt>
<rscale>  2 0.12500000E+03</rscale>
<asrwt>0</asrwt>
<pdfrwt beam="1">  1       21 0.28583228E-01 0.12500000E+03</pdfrwt>
<pdfrwt beam="2">  1       21 0.29554998E-02 0.12500000E+03</pdfrwt>
<totfact> 0.74758536E+06</totfact>
</mgrwt>
</event>
<event>
 6      0 +4.1053447e-01 1.25000000e+02 7.54677100e-03 1.12640300e-01
       21 -1    0    0  502  501 +0.0000000000e+00 +0.0000000000e+00 +1.5328559405e+01 1.5328559405e+01 0.0000000000e+00 0.0000e+00 -1.0000e+00
       21 -1    0    0  501  502 -0.0000000000e+00 -0.0000000000e+00 -2.5483477584e+02 2.5483477584e+02 0.0000000000e+00 0.0000e+00 -1.0000e+00
       25  2    1    2    0    0 +0.0000000000e+00 +0.0000000000e+00 -2.3950621643e+02 2.7016333524e+02 1.2500000000e+02 0.0000e+00 0.0000e+00
      -15  1    3    3    0    0 -5.6300470791e+01 -2.4148938770e+01 -9.3266912903e+01 1.1160102610e+02 1.7770000000e+00 0.0000e+00 1.0000e+00
       15  1    3    3    0    0 +5.6300470767e+01 +2.4148938748e+01 -1.4623930345e+02 1.5856230906e+02 1.7770000000e+00 0.0000e+00 1.0000e+00
       22  1    3    3    0    0 +2.4494881902e-08 +2.1588556208e-08 -7.9604990000e-08 8.6040800969e-08 0.0000000000e+00 0.0000e+00 -1.0000e+00
<mgrwt>
<rscale>  2 0.12500000E+03</rscale>
<asrwt>0</asrwt>
<pdfrwt beam="1">  1       21 0.22541999E-02 0.12500000E+03</pdfrwt>
<pdfrwt beam="2">  1       21 0.37475702E-01 0.12500000E+03</pdfrwt>
<totfact> 0.67478382E+06</totfact>
</mgrwt>
</event>
<event>
 6      0 +4.1053447e-01 1.25000000e+02 7.54677100e-03 1.12640300e-01
       21 -1    0    0  502  501 +0.0000000000e+00 +0.0000000000e+00 +4.4536173483e+00 4.4536173483e+00 0.0000000000e+00 0.0000e+00 -1.0000e+00
       21 -1    0    0  501  502 -0.0000000000e+00 -0.0000000000e+00 -8.7709600859e+02 8.7709600859e+02 0.0000000000e+00 0.0000e+00 -1.0000e+00
       25  2    1    2    0    0 +0.0000000000e+00 +0.0000000000e+00 -8.7264239124e+02 8.8154962594e+02 1.2500000000e+02 0.0000e+00 0.0000e+00
      -15  1    3    3    0    0 -2.1001033751e+01 -3.0289988696e+01 -8.0581685731e+01 8.8628960493e+01 1.7770000000e+00 0.0000e+00 -1.0000e+00
       15  1    3    3    0    0 +1.8070933160e+01 +2.6428515513e+01 -6.9297269077e+02 6.9371415795e+02 1.7770000000e+00 0.0000e+00 -1.0000e+00
       22  1    3    3    0    0 +2.9301005909e+00 +3.8614731830e+00 -9.9088014571e+01 9.9206507328e+01 0.0000000000e+00 0.0000e+00 -1.0000e+00
<mgrwt>
<rscale>  2 0.12500000E+03</rscale>
<asrwt>0</asrwt>
<pdfrwt beam="1">  1       21 0.65494451E-03 0.12500000E+03</pdfrwt>
<pdfrwt beam="2">  1       21 0.12898455E+00 0.12500000E+03</pdfrwt>
<totfact> 0.25090419E+06</totfact>
</mgrwt>
</event>
<event>
 6      0 +4.1053447e-01 1.25000000e+02 7.54677100e-03 1.12640300e-01
       21 -1    0    0  502  501 +0.0000000000e+00 +0.0000000000e+00 +2.6675224944e+02 2.6675224944e+02 0.0000000000e+00 0.0000e+00 -1.0000e+00
       21 -1    0    0  501  502 -0.0000000000e+00 -0.0000000000e+00 -1.4643737806e+01 1.4643737806e+01 0.0000000000e+00 0.0000e+00 -1.0000e+00
       25  2    1    2    0    0 +0.0000000000e+00 +0.0000000000e+00 +2.5210851163e+02 2.8139598724e+02 1.2500000000e+02 0.0000e+00 0.0000e+00
      -15  1    3    3    0    0 -4.4172755170e+01 +2.2675965724e+01 +2.1141065089e+02 2.1717056145e+02 1.7770000000e+00 0.0000e+00 1.0000e+00
       15  1    3    3    0    0 +4.4172755040e+01 -2.2675965644e+01 +4.0697860621e+01 6.4225425603e+01 1.7770000000e+00 0.0000e+00 1.0000e+00
       22  1    3    3    0    0 +1.3020705126e-07 -7.9697201497e-08 +1.2628957358e-07 1.9812767732e-07 0.0000000000e+00 0.0000e+00 1.0000e+00
<mgrwt>
<rscale>  2 0.12500000E+03</rscale>
<asrwt>0</asrwt>
<pdfrwt beam="1">  1       21 0.39228269E-01 0.12500000E+03</pdfrwt>
<pdfrwt beam="2">  1       21 0.21534910E-02 0.12500000E+03</pdfrwt>
<totfact> 0.66125067E+06</totfact>
</mgrwt>
</event>
<event>
 6      0 +4.1053447e-01 1.25000000e+02 7.54677100e-03 1.12640300e-01
       21 -1    0    0  502  501 +0.0000000000e+00 +0.0000000000e+00 +1.9326610536e+01 1.9326610536e+01 0.0000000000e+00 0.0000e+00 1.0000e+00
       21 -1    0    0  501  502 -0.0000000000e+00 -0.0000000000e+00 -2.0211769636e+02 2.0211769636e+02 0.0000000000e+00 0.0000e+00 1.0000e+00
       25  2    1    2    0    0 +0.0000000000e+00 +0.0000000000e+00 -1.8279108583e+02 2.2144430690e+02 1.2500000000e+02 0.0000e+00 0.0000e+00
      -15  1    3    3    0    0 +1.0337328123e+01 +4.7365025177e+01 -2.1586718307e+01 5.3098494320e+01 1.7770000000e+00 0.0000e+00 -1.0000e+00
       15  1    3    3    0    0 -1.0337316628e+01 -4.7365024341e+01 -1.6120433463e+02 1.6834577772e+02 1.7770000000e+00 0.0000e+00 -1.0000e+00
       22  1    3    3    0    0 -1.1495114228e-05 -8.3581406451e-07 -3.2901374598e-05 3.4861679344e-05 0.0000000000e+00 0.0000e+00 -1.0000e+00
<mgrwt>
<rscale>  2 0.12500000E+03</rscale>
<asrwt>0</asrwt>
<pdfrwt beam="1">  1       21 0.28421486E-02 0.12500000E+03</pdfrwt>
<pdfrwt beam="2">  1       21 0.29723190E-01 0.12500000E+03</pdfrwt>
<totfact> 0.73795434E+06</totfact>
</mgrwt>
</event>
<event>
 6      0 +4.1053447e-01 1.25000000e+02 7.54677100e-03 1.12640300e-01
       21 -1    0    0  502  501 +0.0000000000e+00 +0.0000000000e+00 +4.9027638817e+02 4.9027638817e+02 0.0000000000e+00 0.0000e+00 -1.0000e+00
       21 -1    0    0  501  502 -0.0000000000e+00 -0.0000000000e+00 -7.9674446787e+00 7.9674446787e+00 0.0000000000e+00 0.0000e+00 -1.0000e+00
       25  2    1    2    0    0 +0.0000000000e+00 +0.0000000000e+00 +4.8230894349e+02 4.9824383284e+02 1.2500000000e+02 0.0000e+00 0.0000e+00
      -15  1    3    3    0    0 -5.9773259419e+01 -1.4413288944e+00 +3.1336206624e+02 3.1902015964e+02 1.7770000000e+00 0.0000e+00 -1.0000e+00
       15  1    3    3    0    0 +5.9773259421e+01 +1.4413289295e+00 +1.6894687712e+02 1.7922367307e+02 1.7770000000e+00 0.0000e+00 -1.0000e+00
       22  1    3    3    0    0 -1.5715778059e-09 -3.5057749217e-08 +2.4281667913e-07 2.4533946951e-07 0.0000000000e+00 0.0000e+00 -1.0000e+00
<mgrwt>
<rscale>  2 0.12500000E+03</rscale>
<asrwt>0</asrwt>
<pdfrwt beam="1">  1       21 0.72099449E-01 0.12500000E+03</pdfrwt>
<pdfrwt beam="2">  1       21 0.11716834E-02 0.12500000E+03</pdfrwt>
<totfact> 0.45456849E+06</totfact>
</mgrwt>
</event>
<event>
 6      0 +4.1053447e-01 1.25000000e+02 7.54677100e-03 1.12640300e-01
       21 -1    0    0  502  501 +0.0000000000e+00 +0.0000000000e+00 +9.2195848344e+01 9.2195848344e+01 0.0000000000e+00 0.0000e+00 1.0000e+00
       21 -1    0    0  501  502 -0.0000000000e+00 -0.0000000000e+00 -4.2369044487e+01 4.2369044487e+01 0.0000000000e+00 0.0000e+00 1.0000e+00
       25  2    1    2    0    0 +0.0000000000e+00 +0.0000000000e+00 +4.9826803857e+01 1.3456489283e+02 1.2500000000e+02 0.0000e+00 0.0000e+00
      -15  1    3    3    0    0 -3.3896758677e+01 -5.2070368453e+01 +1.7872378428e+01 6.4675290176e+01 1.7770000000e+00 0.0000e+00 1.0000e+00
       15  1    3    3    0    0 +3.3896758698e+01 +5.2070368422e+01 +3.1954425337e+01 6.9889602556e+01 1.7770000000e+00 0.0000e+00 1.0000e+00
       22  1    3    3    0    0 -2.0206570689e-08 +3.1267720672e-08 +9.2228556200e-08 9.9458948486e-08 0.0000000000e+00 0.0000e+00 -1.0000e+00
<mgrwt>
<rscale>  2 0.12500000E+03</rscale>
<asrwt>0</asrwt>
<pdfrwt beam="1">  1       21 0.13558213E-01 0.12500000E+03</pdfrwt>
<pdfrwt beam="2">  1       21 0.62307418E-02 0.12500000E+03</pdfrwt>
<totfact> 0.87282099E+06</totfact>
</mgrwt>
</event>
<event>
 6      0 +4.1053447e-01 1.25000000e+02 7.54677100e-03 1.12640300e-01
       21 -1    0    0  502  501 +0.0000000000e+00 +0.0000000000e+00 +2.4942968857e+01 2.4942968857e+01 0.0000000000e+00 0.0000e+00 -1.0000e+00
       21 -1    0    0  501  502 -0.0000000000e+00 -0.0000000000e+00 -1.5660725964e+02 1.5660725964e+02 0.0000000000e+00 0.0000e+00 -1.0000e+00
       25  2    1    2    0    0 +0.0000000000e+00 +0.0000000000e+00 -1.3166429078e+02 1.8155022850e+02 1.2500000000e+02 0.0000e+00 0.0000e+00
      -15  1    3    3    0    0 +2.6412223134e+01 -4.8104221918e+01 -1.0919706643e+02 1.2222429686e+02 1.7770000000e+00 0.0000e+00 -1.0000e+00
       15  1    3    3    0    0 -2.6412310799e+01 +4.8104133207e+01 -2.2467124429e+01 5.9325771823e+01 1.7770000000e+00 0.0000e+00 -1.0000e+00
       22  1    3    3    0    0 +8.7665405747e-05 +8.8710588740e-05 -9.9910665364e-05 1.5980279401e-04 0.0000000000e+00 0.0000e+00 1.0000e+00
<mgrwt>
<rscale>  2 0.12500000E+03</rscale>
<asrwt>0</asrwt>
<pdfrwt beam="1">  1       21 0.36680837E-02 0.12500000E+03</pdfrwt>
<pdfrwt beam="2">  1       21 0.23030479E-01 0.12500000E+03</pdfrwt>
<totfact> 0.79569705E+06</totfact>
</mgrwt>
</event>
<event>
 6      0 +4.1053447e-01 1.25000000e+02 7.54677100e-03 1.12640300e-01
       21 -1    0    0  502  501 +0.0000000000e+00 +0.0000000000e+00 +6.4285286271e+01 6.4285286271e+01 0.0000000000e+00 0.0000e+00 -1.0000e+00
       21 -1    0    0  501  502 -0.0000000000e+00 -0.0000000000e+00 -6.0764293458e+01 6.0764293458e+01 0.0000000000e+00 0.0000e+00 -1.0000e+00
       25  2    1    2    0    0 +0.0000000000e+00 +0.0000000000e+00 +3.5209928137e+00 1.2504957973e+02 1.2500000000e+02 0.0000e+00 0.0000e+00
      -15  1    3    3    0    0 +1.1890640675e+01 -6.0087338583e+01 +1.4062392910e+01 6.2871171590e+01 1.7770000000e+00 0.0000e+00 1.0000e+00
       15  1    3    3    0    0 -1.1890640674e+01 +6.0087338583e+01 -1.0541400097e+01 6.2178408139e+01 1.7770000000e+00 0.0000e+00 1.0000e+00
       22  1    3    3    0    0 -5.0513717312e-10 -1.3982111583e-10 +5.8905865456e-10 7.8848183658e-10 0.0000000000e+00 0.0000e+00 1.0000e+00
<mgrwt>
<rscale>  2 0.12500000E+03</rscale>
<asrwt>0</asrwt>
<pdfrwt beam="1">  1       21 0.94537186E-02 0.12500000E+03</pdfrwt>
<pdfrwt beam="2">  1       21 0.89359255E-02 0.12500000E+03</pdfrwt>
<totfact> 0.88991756E+06</totfact>
</mgrwt>
</event>
<event>
 6      0 +4.1053447e-01 1.25000000e+02 7.54677100e-03 1.12640300e-01
       21 -1    0    0  502  501 +0.0000000000e+00 +0.0000000000e+00 +1.7395249901e+02 1.7395249901e+02 0.0000000000e+00 0.0000e+00 1.0000e+00
       21 -1    0    0  501  502 -0.0000000000e+00 -0.0000000000e+00 -2.2455842959e+01 2.2455842959e+01 0.0000000000e+00 0.0000e+00 1.0000e+00
       25  2    1    2    0    0 +0.0000000000e+00 +0.0000000000e+00 +1.5149665605e+02 1.9640834197e+02 1.2500000000e+02 0.0000e+00 0.0000e+00
      -15  1    3    3    0    0 -4.8762460165e+01 +1.7203550812e+01 +2.0657450358e+01 5.5710211507e+01 1.7770000000e+00 0.0000e+00 -1.0000e+00
       15  1    3    3    0    0 +4.7773982182e+01 -1.6830719787e+01 +1.2827266024e+02 1.3792265803e+02 1.7770000000e+00 0.0000e+00 -1.0000e+00
       22  1    3    3    0    0 +9.8847798369e-01 -3.7283102462e-01 +2.5665454418e+00 2.7754724286e+00 0.0000000000e+00 0.0000e+00 -1.0000e+00
<mgrwt>
<rscale>  2 0.12500000E+03</rscale>
<asrwt>0</asrwt>
<pdfrwt beam="1">  1       21 0.25581249E-01 0.12500000E+03</pdfrwt>
<pdfrwt beam="2">  1       21 0.33023299E-02 0.12500000E+03</pdfrwt>
<totfact> 0.77346368E+06</totfact>
</mgrwt>
</event>
<event>
 6      0 +4.1053447e-01 1.25000000e+02 7.54677100e-03 1.12640300e-01
       21 -1    0    0  502  501 +0.0000000000e+00 +0.0000000000e+00 +8.1690431167e+02 8.1690431167e+02 0.0000000000e+00 0.0000e+00 1.0000e+00
       21 -1    0    0  501  502 -0.0000000000e+00 -0.0000000000e+00 -4.7817717990e+00 4.7817717990e+00 0.0000000000e+00 0.0000e+00 1.0000e+00
       25  2    1    2    0    0 +0.0000000000e+00 +0.0000000000e+00 +8.1212253987e+02 8.2168608346e+02 1.2500000000e+02 0.0000e+00 0.0000e+00
      -15  1    3    3    0    0 +5.6007546648e+00 +2.3943125030e+01 +2.8531760939e+01 3.7707569535e+01 1.7770000000e+00 0.0000e+00 -1.0000e+00
       15  1    3    3    0    0 -5.6007562240e+00 -2.3943126714e+01 +7.8359077778e+02 7.8397851153e+02 1.7770000000e+00 0.0000e+00 -1.0000e+00
       22  1    3    3    0    0 +1.5592196828e-06 +1.6843480845e-06 +1.4836579797e-06 2.7330268000e-06 0.0000000000e+00 0.0000e+00 -1.0000e+00
<mgrwt>
<rscale>  2 0.12500000E+03</rscale>
<asrwt>0</asrwt>
<pdfrwt beam="1">  1       21 0.12013289E+00 0.12500000E+03</pdfrwt>
<pdfrwt beam="2">  1       21 0.70320230E-03 0.12500000E+03</pdfrwt>
<totfact> 0.27391966E+06</totfact>
</mgrwt>
</event>
<event>
 6      0 +4.1053447e-01 1.25000000e+02 7.54677100e-03 1.12640300e-01
       21 -1    0    0  502  501 +0.0000000000e+00 +0.0000000000e+00 +5.5019857364e+01 5.5019857364e+01 0.0000000000e+00 0.0000e+00 1.0000e+00
       21 -1    0    0  501  502 -0.0000000000e+00 -0.0000000000e+00 -7.0997094270e+01 7.0997094270e+01 0.0000000000e+00 0.0000e+00 1.0000e+00
       25  2    1    2    0    0 +0.0000000000e+00 +0.0000000000e+00 -1.5977236905e+01 1.2601695163e+02 1.2500000000e+02 0.0000e+00 0.0000e+00
      -15  1    3    3    0    0 +4.6659437315e+01 +3.9158145648e+01 +6.0033731230e+00 6.1234481128e+01 1.7770000000e+00 0.0000e+00 -1.0000e+00
       15  1    3    3    0    0 -4.6659437678e+01 -3.9158145557e+01 -2.1980610073e+01 6.4782470129e+01 1.7770000000e+00 0.0000e+00 -1.0000e+00
       22  1    3    3    0    0 +3.6281275311e-07 -9.1635268668e-08 +4.4542316698e-08 3.7684762738e-07 0.0000000000e+00 0.0000e+00 1.0000e+00
<mgrwt>
<rscale>  2 0.12500000E+03</rscale>
<asrwt>0</asrwt>
<pdfrwt beam="1">  1       21 0.80911556E-02 0.12500000E+03</pdfrwt>
<pdfrwt beam="2">  1       21 0.10440749E-01 0.12500000E+03</pdfrwt>
<totfact> 0.88808700E+06</totfact>
</mgrwt>
</event>
<event>
 6      0 +4.1053447e-01 1.25000000e+02 7.54677100e-03 1.12640300e-01
       21 -1    0    0  502  501 +0.0000000000e+00 +0.0000000000e+00 +1.3645558954e+02 1.3645558954e+02 0.0000000000e+00 0.0000e+00 1.0000e+00
       21 -1    0    0  501  502 -0.0000000000e+00 -0.0000000000e+00 -2.8626529797e+01 2.8626529797e+01 0.0000000000e+00 0.0000e+00 1.0000e+00
       25  2    1    2    0    0 +0.0000000000e+00 +0.0000000000e+00 +1.0782905974e+02 1.6508211934e+02 1.2500000000e+02 0.0000e+00 0.0000e+00
      -15  1    3    3    0    0 +4.9285710253e+01 -2.6174185040e+01 +9.0987639973e+01 1.0675241241e+02 1.7770000000e+00 0.0000e+00 1.0000e+00
       15  1    3    3    0    0 -4.9289703442e+01 +2.6176462408e+01 +1.6832338481e+01 5.8319528438e+01 1.7770000000e+00 0.0000e+00 1.0000e+00
       22  1    3    3    0    0 +3.9931885460e-03 -2.2773672570e-03 +9.0812813459e-03 1.0178488457e-02 0.0000000000e+00 0.0000e+00 -1.0000e+00
<mgrwt>
<rscale>  2 0.12500000E+03</rscale>
<asrwt>0</asrwt>
<pdfrwt beam="1">  1       21 0.20066998E-01 0.12500000E+03</pdfrwt>
<pdfrwt beam="2">  1       21 0.42097839E-02 0.12500000E+03</pdfrwt>
<totfact> 0.82152921E+06</totfact>
</mgrwt>
</event>
<event>
 6      0 +4.1053447e-01 1.25000000e+02 7.54677100e-03 1.12640300e-01
       21 -1    0    0  502  501 +0.0000000000e+00 +0.0000000000e+00 +1.0421525531e+01 1.0421525531e+01 0.0000000000e+00 0.0000e+00 -1.0000e+00
       21 -1    0    0  501  502 -0.0000000000e+00 -0.0000000000e+00 -3.7482516245e+02 3.7482516245e+02 0.0000000000e+00 0.0000e+00 -1.0000e+00
       25  2    1    2    0    0 +0.0000000000e+00 +0.0000000000e+00 -3.6440363692e+02 3.8524668798e+02 1.2500000000e+02 0.0000e+00 0.0000e+00
      -15  1    3    3    0    0 -2.2278175324e+01 -3.7791080998e+01 -3.1929281438e+02 3.2229728814e+02 1.7770000000e+00 0.0000e+00 -1.0000e+00
       15  1    3    3    0    0 +2.2278175334e+01 +3.7791081010e+01 -4.5110822549e+01 6.2949399839e+01 1.7770000000e+00 0.0000e+00 -1.0000e+00
       22  1    3    3    0    0 -9.9109585228e-09 -1.1802574787e-08 -6.1995889051e-09 1.6612127287e-08 0.0000000000e+00 0.0000e+00 -1.0000e+00
<mgrwt>
<rscale>  2 0.12500000E+03</rscale>
<asrwt>0</asrwt>
<pdfrwt beam="1">  1       21 0.15325771E-02 0.12500000E+03</pdfrwt>
<pdfrwt beam="2">  1       21 0.55121353E-01 0.12500000E+03</pdfrwt>
<totfact> 0.55041030E+06</totfact>
</mgrwt>
</event>
<event>
 6      0 +4.1053447e-01 1.25000000e+02 7.54677100e-03 1.12640300e-01
       21 -1    0    0  502  501 +0.0000000000e+00 +0.0000000000e+00 +2.3624629758e+01 2.3624629758e+01 0.0000000000e+00 0.0000e+00 -1.0000e+00
       21 -1    0    0  501  502 -0.0000000000e+00 -0.0000000000e+00 -1.6534650659e+02 1.6534650659e+02 0.0000000000e+00 0.0000e+00 -1.0000e+00
       25  2    1    2    0    0 +0.0000000000e+00 +0.0000000000e+00 -1.4172187684e+02 1.8897113635e+02 1.2500000000e+02 0.0000e+00 0.0000e+00
      -15  1    3    3    0    0 +5.9276633119e+01 +3.4386251599e+00 -4.1500451385e+01 7.2463705198e+01 1.7770000000e+00 0.0000e+00 -1.0000e+00
       15  1    3    3    0    0 -5.9280035572e+01 -3.4388437978e+00 -1.0021966684e+02 1.1650359486e+02 1.7770000000e+00 0.0000e+00 -1.0000e+00
       22  1    3    3    0    0 +3.4024529906e-03 +2.1863794195e-04 -1.7586254740e-03 3.8363071385e-03 0.0000000000e+00 0.0000e+00 -1.0000e+00
<mgrwt>
<rscale>  2 0.12500000E+03</rscale>
<asrwt>0</asrwt>
<pdfrwt beam="1">  1       21 0.34742102E-02 0.12500000E+03</pdfrwt>
<pdfrwt beam="2">  1       21 0.24315663E-01 0.12500000E+03</pdfrwt>
<totfact> 0.78451272E+06</totfact>
</mgrwt>
</event>
<event>
 6      0 +4.1053447e-01 1.25000000e+02 7.54677100e-03 1.12640300e-01
       21 -1    0    0  502  501 +0.0000000000e+00 +0.0000000000e+00 +6.5807658123e+01 6.5807658123e+01 0.0000000000e+00 0.0000e+00 1.0000e+00
       21 -1    0    0  501  502 -0.0000000000e+00 -0.0000000000e+00 -5.9358593079e+01 5.9358593079e+01 0.0000000000e+00 0.0000e+00 1.0000e+00
       25  2    1    2    0    0 +0.0000000000e+00 +0.0000000000e+00 +6.4490650437e+00 1.2516625120e+02 1.2500000000e+02 0.0000e+00 0.0000e+00
      -15  1    3    3    0    0 +4.6527328361e+01 -5.6396450259e+00 +4.4589212107e+01 6.4714399060e+01 1.7770000000e+00 0.0000e+00 1.0000e+00
       15  1    3    3    0    0 -4.6527328359e+01 +5.6396450268e+00 -3.8140147063e+01 6.0451852140e+01 1.7770000000e+00 0.0000e+00 1.0000e+00
       22  1    3    3    0    0 -1.8088997410e-09 -8.6685104712e-10 +3.1436944105e-11 2.0061249444e-09 0.0000000000e+00 0.0000e+00 1.0000e+00
<mgrwt>
<rscale>  2 0.12500000E+03</rscale>
<asrwt>0</asrwt>
<pdfrwt beam="1">  1       21 0.96775968E-02 0.12500000E+03</pdfrwt>
<pdfrwt beam="2">  1       21 0.87292049E-02 0.12500000E+03</pdfrwt>
<totfact> 0.88967515E+06</totfact>
</mgrwt>
</event>
<event>
 6      0 +4.1053447e-01 1.25000000e+02 7.54677100e-03 1.12640300e-01
       21 -1    0    0  502  501 +0.0000000000e+00 +0.0000000000e+00 +1.3214186237e+02 1.3214186237e+02 0.0000000000e+00 0.0000e+00 1.0000e+00
       21 -1    0    0  501  502 -0.0000000000e+00 -0.0000000000e+00 -2.9561033347e+01 2.9561033347e+01 0.0000000000e+00 0.0000e+00 1.0000e+00
       25  2    1    2    0    0 +0.0000000000e+00 +0.0000000000e+00 +1.0258082902e+02 1.6170289571e+02 1.2500000000e+02 0.0000e+00 0.0000e+00
      -15  1    3    3    0    0 +6.6094821583e+00 +2.5907035690e+01 -2.1752431194e+01 3.4513558850e+01 1.7770000000e+00 0.0000e+00 1.0000e+00
       15  1    3    3    0    0 -6.6074107355e+00 -2.5906706327e+01 +1.2433259770e+02 1.2718713727e+02 1.7770000000e+00 0.0000e+00 1.0000e+00
       22  1    3    3    0    0 -2.0714228052e-03 -3.2936256277e-04 +6.6252303546e-04 2.1995928960e-03 0.0000000000e+00 0.0000e+00 1.0000e+00
<mgrwt>
<rscale>  2 0.12500000E+03</rscale>
<asrwt>0</asrwt>
<pdfrwt beam="1">  1       21 0.19432627E-01 0.12500000E+03</pdfrwt>
<pdfrwt beam="2">  1       21 0.43472108E-02 0.12500000E+03</pdfrwt>
<totfact> 0.82701593E+06</totfact>
</mgrwt>
</event>
<event>
 6      0 +4.1053447e-01 1.25000000e+02 7.54677100e-03 1.12640300e-01
       21 -1    0    0  502  501 +0.0000000000e+00 +0.0000000000e+00 +4.2641347833e+01 4.2641347833e+01 0.0000000000e+00 0.0000e+00 -1.0000e+00
       21 -1    0    0  501  502 -0.0000000000e+00 -0.0000000000e+00 -9.1607094957e+01 9.1607094957e+01 0.0000000000e+00 0.0000e+00 -1.0000e+00
       25  2    1    2    0    0 +0.0000000000e+00 +0.0000000000e+00 -4.8965747124e+01 1.3424844279e+02 1.2500000000e+02 0.0000e+00 0.0000e+00
      -15  1    3    3    0    0 -5.9441275044e+01 -1.1173641625e+01 -7.6731077094e+00 6.0993030397e+01 1.7770000000e+00 0.0000e+00 1.0000e+00
       15  1    3    3    0    0 +5.9440689758e+01 +1.1173512084e+01 -4.1292185849e+01 7.3254660687e+01 1.7770000000e+00 0.0000e+00 1.0000e+00
       22  1    3    3    0    0 +5.8528575301e-04 +1.2954171859e-04 -4.5356497263e-04 7.5170582938e-04 0.0000000000e+00 0.0000e+00 1.0000e+00
<mgrwt>
<rscale>  2 0.12500000E+03</rscale>
<asrwt>0</asrwt>
<pdfrwt beam="1">  1       21 0.62707865E-02 0.12500000E+03</pdfrwt>
<pdfrwt beam="2">  1       21 0.13471631E-01 0.12500000E+03</pdfrwt>
<totfact> 0.87337657E+06</totfact>
</mgrwt>
</event>
<event>
 6      0 +4.1053447e-01 1.25000000e+02 7.54677100e-03 1.12640300e-01
       21 -1    0    0  502  501 +0.0000000000e+00 +0.0000000000e+00 +5.1577375739e+02 5.1577375739e+02 0.0000000000e+00 0.0000e+00 1.0000e+00
       21 -1    0    0  501  502 -0.0000000000e+00 -0.0000000000e+00 -7.5735726063e+00 7.5735726063e+00 0.0000000000e+00 0.0000e+00 1.0000e+00
       25  2    1    2    0    0 +0.0000000000e+00 +0.0000000000e+00 +5.0820018478e+02 5.2334733000e+02 1.2500000000e+02 0.0000e+00 0.0000e+00
      -15  1    3    3    0    0 -5.5897820489e+01 +2.0038093047e+01 +3.3519291220e+02 3.4041671173e+02 1.7770000000e+00 0.0000e+00 -1.0000e+00
       15  1    3    3    0    0 +5.5850143966e+01 -2.0049780243e+01 +1.7294891411e+02 1.8285435978e+02 1.7770000000e+00 0.0000e+00 -1.0000e+00
       22  1    3    3    0    0 +4.7676523061e-02 +1.1687195116e-02 +5.8358348440e-02 7.6258364875e-02 0.0000000000e+00 0.0000e+00 1.0000e+00
<mgrwt>
<rscale>  2 0.12500000E+03</rscale>
<asrwt>0</asrwt>
<pdfrwt beam="1">  1       21 0.75849058E-01 0.12500000E+03</pdfrwt>
<pdfrwt beam="2">  1       21 0.11137610E-02 0.12500000E+03</pdfrwt>
<totfact> 0.43633791E+06</totfact>
</mgrwt>
</event>
<event>
 6      0 +4.1053447e-01 1.25000000e+02 7.54677100e-03 1.12640300e-01
       21 -1    0    0  502  501 +0.0000000000e+00 +0.0000000000e+00 +2.6160390924e+02 2.6160390924e+02 0.0000000000e+00 0.0000e+00 1.0000e+00
       21 -1    0    0  501  502 -0.0000000000e+00 -0.0000000000e+00 -1.4931925182e+01 1.4931925182e+01 0.0000000000e+00 0.0000e+00 1.0000e+00
       25  2    1    2    0    0 +0.0000000000e+00 +0.0000000000e+00 +2.4667198405e+02 2.7653583442e+02 1.2500000000e+02 0.0000e+00 0.0000e+00
      -15  1    3    3    0    0 -9.3769290021e+00 +3.3362925796e+01 +8.3379204189e+00 3.5688797418e+01 1.7770000000e+00 0.0000e+00 1.0000e+00
       15  1    3    3    0    0 +9.3769290024e+00 -3.3362925796e+01 +2.3833406361e+02 2.4084703697e+02 1.7770000000e+00 0.0000e+00 1.0000e+00
       22  1    3    3    0    0 -3.2029963463e-10 +8.8124596564e-11 +6.1034006455e-10 6.9489049127e-10 0.0000000000e+00 0.0000e+00 -1.0000e+00
<mgrwt>
<rscale>  2 0.12500000E+03</rscale>
<asrwt>0</asrwt>
<pdfrwt beam="1">  1       21 0.38471160E-01 0.12500000E+03</pdfrwt>
<pdfrwt beam="2">  1       21 0.21958715E-02 0.12500000E+03</pdfrwt>
<totfact> 0.66706329E+06</totfact>
</mgrwt>
</event>
<event>
 6      0 +4.1053447e-01 1.25000000e+02 7.54677100e-03 1.12640300e-01
       21 -1    0    0  502  501 +0.0000000000e+00 +0.0000000000e+00 +2.4507095156e+02 2.4507095156e+02 0.0000000000e+00 0.0000e+00 1.0000e+00
       21 -1    0    0  501  502 -0.0000000000e+00 -0.0000000000e+00 -1.5939261569e+01 1.5939261569e+01 0.0000000000e+00 0.0000e+00 1.0000e+00
       25  2    1    2    0    0 +0.0000000000e+00 +0.0000000000e+00 +2.2913168999e+02 2.6101021313e+02 1.2500000000e+02 0.0000e+00 0.0000e+00
      -15  1    3    3    0    0 -2.2911954967e+00 -6.0505221285e+01 +8.2422924299e+01 1.0228796390e+02 1.7770000000e+00 0.0000e+00 -1.0000e+00
       15  1    3    3    0    0 +2.2911941525e+00 +6.0505225171e+01 +1.4670873159e+02 1.5872221489e+02 1.7770000000e+00 0.0000e+00 -1.0000e+00
       22  1    3    3    0    0 +1.3441718951e-06 -3.8860697604e-06 +3.4092593337e-05 3.4339674674e-05 0.0000000000e+00 0.0000e+00 -1.0000e+00
<mgrwt>
<rscale>  2 0.12500000E+03</rscale>
<asrwt>0</asrwt>
<pdfrwt beam="1">  1       21 0.36039843E-01 0.12500000E+03</pdfrwt>
<pdfrwt beam="2">  1       21 0.23440092E-02 0.12500000E+03</pdfrwt>
<totfact> 0.68608359E+06</totfact>
</mgrwt>
</event>
<event>
 6      0 +4.1053447e-01 1.25000000e+02 7.54677100e-03 1.12640300e-01
       21 -1    0    0  502  501 +0.0000000000e+00 +0.0000000000e+00 +8.1567669334e+01 8.1567669334e+01 0.0000000000e+00 0.0000e+00 -1.0000e+00
       21 -1    0    0  501  502 -0.0000000000e+00 -0.0000000000e+00 -4.7889685115e+01 4.7889685115e+01 0.0000000000e+00 0.0000e+00 -1.0000e+00
       25  2    1    2    0    0 +0.0000000000e+00 +0.0000000000e+00 +3.3677984219e+01 1.2945735445e+02 1.2500000000e+02 0.0000e+00 0.0000e+00
      -15  1    3    3    0    0 -2.5007251526e+01 +1.4623711803e+01 +6.5653569781e+01 7.1782759279e+01 1.7770000000e+00 0.0000e+00 -1.0000e+00
       15  1    3    3    0    0 +2.9650559085e+01 -1.3229820676e+01 -3.7953392550e+01 4.9978010607e+01 1.7770000000e+00 0.0000e+00 -1.0000e+00
       22  1    3    3    0    0 -4.6433075589e+00 -1.3938911270e+00 +5.9778069877e+00 7.6965845635e+00 0.0000000000e+00 0.0000e+00 -1.0000e+00
<mgrwt>
<rscale>  2 0.12500000E+03</rscale>
<asrwt>0</asrwt>
<pdfrwt beam="1">  1       21 0.11995246E-01 0.12500000E+03</pdfrwt>
<pdfrwt beam="2">  1       21 0.70426007E-02 0.12500000E+03</pdfrwt>
<totfact> 0.88196686E+06</totfact>
</mgrwt>
</event>
<event>
 6      0 +4.1053447e-01 1.25000000e+02 7.54677100e-03 1.12640300e-01
       21 -1    0    0  502  501 +0.0000000000e+00 +0.0000000000e+00 +6.6177143060e+01 6.6177143060e+01 0.0000000000e+00 0.0000e+00 -1.0000e+00
       21 -1    0    0  501  502 -0.0000000000e+00 -0.0000000000e+00 -5.9027177956e+01 5.9027177956e+01 0.0000000000e+00 0.0000e+00 -1.0000e+00
       25  2    1    2    0    0 +0.0000000000e+00 +0.0000000000e+00 +7.1499651038e+00 1.2520432102e+02 1.2500000000e+02 0.0000e+00 0.0000e+00
      -15  1    3    3    0    0 -4.0182683793e+01 +3.7529916292e+01 +3.3287393315e+01 6.4298918936e+01 1.7770000000e+00 0.0000e+00 -1.0000e+00
       15  1    3    3    0    0 +4.0182690129e+01 -3.7529921660e+01 -2.6137433822e+01 6.0905392057e+01 1.7770000000e+00 0.0000e+00 -1.0000e+00
       22  1    3    3    0    0 -6.3351735279e-06 +5.3689559759e-06 +5.6112627872e-06 1.0022294247e-05 0.0000000000e+00 0.0000e+00 -1.0000e+00
<mgrwt>
<rscale>  2 0.12500000E+03</rscale>
<asrwt>0</asrwt>
<pdfrwt beam="1">  1       21 0.97319329E-02 0.12500000E+03</pdfrwt>
<pdfrwt beam="2">  1       21 0.86804673E-02 0.12500000E+03</pdfrwt>
<totfact> 0.88959935E+06</totfact>
</mgrwt>
</event>
<event>
 6      0 +4.1053447e-01 1.25000000e+02 7.54677100e-03 1.12640300e-01
       21 -1    0    0  502  501 +0.0000000000e+00 +0.0000000000e+00 +6.3514090396e+02 6.3514090396e+02 0.0000000000e+00 0.0000e+00 -1.0000e+00
       21 -1    0    0  501  502 -0.0000000000e+00 -0.0000000000e+00 -6.1502100961e+00 6.1502100961e+00 0.0000000000e+00 0.0000e+00 -1.0000e+00
       25  2    1    2    0    0 +0.0000000000e+00 +0.0000000000e+00 +6.2899069386e+02 6.4129111406e+02 1.2500000000e+02 0.0000e+00 0.0000e+00
      -15  1    3    3    0    0 +3.0906352077e+01 +1.7373355542e+01 +5.7838865837e+02 5.7947703487e+02 1.7770000000e+00 0.0000e+00 1.0000e+00
       15  1    3    3    0    0 -3.0904571261e+01 -1.7374618697e+01 +5.0590363306e+01 6.1802204556e+01 1.7770000000e+00 0.0000e+00 1.0000e+00
       22  1    3    3    0    0 -1.7808163690e-03 +1.2631543335e-03 +1.1671986043e-02 1.1874431523e-02 0.0000000000e+00 0.0000e+00 1.0000e+00
<mgrwt>
<rscale>  2 0.12500000E+03</rscale>
<asrwt>0</asrwt>
<pdfrwt beam="1">  1       21 0.93403029E-01 0.12500000E+03</pdfrwt>
<pdfrwt beam="2">  1       21 0.90444310E-03 0.12500000E+03</pdfrwt>
<totfact> 0.36038222E+06</totfact>
</mgrwt>
</event>
<event>
 6      0 +4.1053447e-01 1.25000000e+02 7.54677100e-03 1.12640300e-01
       21 -1    0    0  502  501 +0.0000000000e+00 +0.0000000000e+00 +2.2232272279e+01 2.2232272279e+01 0.0000000000e+00 0.0000e+00 1.0000e+00
       21 -1    0    0  501  502 -0.0000000000e+00 -0.0000000000e+00 -1.7570178842e+02 1.7570178842e+02 0.0000000000e+00 0.0000e+00 1.0000e+00
       25  2    1    2    0    0 +0.0000000000e+00 +0.0000000000e+00 -1.5346951614e+02 1.9793406070e+02 1.2500000000e+02 0.0000e+00 0.0000e+00
      -15  1    3    3    0    0 -2.1041015161e+01 -4.7251867290e+01 -1.3220346093e+02 1.4197315272e+02 1.7770000000e+00 0.0000e+00 1.0000e+00
       15  1    3    3    0    0 +2.1041854141e+01 +4.7254272491e+01 -2.1259724388e+01 5.5954083893e+01 1.7770000000e+00 0.0000e+00 1.0000e+00
       22  1    3    3    0    0 -8.3897936519e-04 -2.4052009399e-03 -6.3308155169e-03 6.8240825790e-03 0.0000000000e+00 0.0000e+00 1.0000e+00
<mgrwt>
<rscale>  2 0.12500000E+03</rscale>
<asrwt>0</asrwt>
<pdfrwt beam="1">  1       21 0.32694519E-02 0.12500000E+03</pdfrwt>
<pdfrwt beam="2">  1       21 0.25838498E-01 0.12500000E+03</pdfrwt>
<totfact> 0.77121462E+06</totfact>
</mgrwt>
</event>
<event>
 6      0 +4.1053447e-01 1.25000000e+02 7.54677100e-03 1.12640300e-01
       21 -1    0    0  502  501 +0.0000000000e+00 +0.0000000000e+00 +2.4323472374e+01 2.4323472374e+01 0.0000000000e+00 0.0000e+00 1.0000e+00
       21 -1    0    0  501  502 -0.0000000000e+00 -0.0000000000e+00 -1.6059590259e+02 1.6059590259e+02 0.0000000000e+00 0.0000e+00 1.0000e+00
       25  2    1    2    0    0 +0.0000000000e+00 +0.0000000000e+00 -1.3627243022e+02 1.8491937496e+02 1.2500000000e+02 0.0000e+00 0.0000e+00
      -15  1    3    3    0    0 +3.5835082813e+01 +4.4930217183e+00 +7.2782770668e+00 3.6884569273e+01 1.7770000000e+00 0.0000e+00 -1.0000e+00
       15  1    3    3    0    0 -3.5835082813e+01 -4.4930217189e+00 -1.4355070730e+02 1.4803480570e+02 1.7770000000e+00 0.0000e+00 -1.0000e+00
       22  1    3    3    0    0 -1.0067564057e-10 +6.4520391165e-10 +7.6800613058e-11 6.5751198188e-10 0.0000000000e+00 0.0000e+00 1.0000e+00
<mgrwt>
<rscale>  2 0.12500000E+03</rscale>
<asrwt>0</asrwt>
<pdfrwt beam="1">  1       21 0.35769813E-02 0.12500000E+03</pdfrwt>
<pdfrwt beam="2">  1       21 0.23617044E-01 0.12500000E+03</pdfrwt>
<totfact> 0.79059245E+06</totfact>
</mgrwt>
</event>
<event>
 6      0 +4.1053447e-01 1.25000000e+02 7.54677100e-03 1.12640300e-01
       21 -1    0    0  502  501 +0.0000000000e+00 +0.0000000000e+00 +2.1037367552e+01 2.1037367552e+01 0.0000000000e+00 0.0000e+00 -1.0000e+00
       21 -1    0    0  501  502 -0.0000000000e+00 -0.0000000000e+00 -1.8568150176e+02 1.8568150176e+02 0.0000000000e+00 0.0000e+00 -1.0000e+00
       25  2    1    2    0    0 +0.0000000000e+00 +0.0000000000e+00 -1.6464413421e+02 2.0671886931e+02 1.2500000000e+02 0.0000e+00 0.0000e+00
      -15  1    3    3    0    0 -4.4713980481e+01 +4.3110283518e+01 -8.7559850664e+01 1.0736722858e+02 1.7770000000e+00 0.0000e+00 -1.0000e+00
       15  1    3    3    0    0 +4.4929209312e+01 -4.3275702798e+01 -7.6698309243e+01 9.8879768769e+01 1.7770000000e+00 0.0000e+00 -1.0000e+00
       22  1    3    3    0    0 -2.1522883086e-01 +1.6541928060e-01 -3.8597430818e-01 4.7187196844e-01 0.0000000000e+00 0.0000e+00 1.0000e+00
<mgrwt>
<rscale>  2 0.12500000E+03</rscale>
<asrwt>0</asrwt>
<pdfrwt beam="1">  1       21 0.30937305E-02 0.12500000E+03</pdfrwt>
<pdfrwt beam="2">  1       21 0.27306104E-01 0.12500000E+03</pdfrwt>
<totfact> 0.75849813E+06</totfact>
</mgrwt>
</event>
<event>
 6      0 +4.1053447e-01 1.25000000e+02 7.54677100e-03 1.12640300e-01
       21 -1    0    0  502  501 +0.0000000000e+00 +0.0000000000e+00 +4.0041934111e+00 4.0041934111e+00 0.0000000000e+00 0.0000e+00 1.0000e+00
       21 -1    0    0  501  502 -0.0000000000e+00 -0.0000000000e+00 -9.7553979014e+02 9.7553979014e+02 0.0000000000e+00 0.0000e+00 1.0000e+00
       25  2    1    2    0    0 +0.0000000000e+00 +0.0000000000e+00 -9.7153559673e+02 9.7954398356e+02 1.2500000000e+02 0.0000e+00 0.0000e+00
      -15  1    3    3    0    0 +3.8778818622e+01 -3.6351566166e+01 -7.4289196215e+02 7.4479316477e+02 1.7770000000e+00 0.0000e+00 1.0000e+00
       15  1    3    3    0    0 -3.8787756144e+01 +3.6348835954e+01 -2.2857324632e+02 2.3467981286e+02 1.7770000000e+00 0.0000e+00 1.0000e+00
       22  1    3    3    0    0 +8.9375215829e-03 +2.7302120095e-03 -7.0387802698e-02 7.1005465412e-02 0.0000000000e+00 0.0000e+00 1.0000e+00
<mgrwt>
<rscale>  2 0.12500000E+03</rscale>
<asrwt>0</asrwt>
<pdfrwt beam="1">  1       21 0.58885180E-03 0.12500000E+03</pdfrwt>
<pdfrwt beam="2">  1       21 0.14346178E+00 0.12500000E+03</pdfrwt>
<totfact> 0.21801962E+06</totfact>
</mgrwt>
</event>
<event>
 6      0 +4.1053447e-01 1.25000000e+02 7.54677100e-03 1.12640300e-01
       21 -1    0    0  502  501 +0.0000000000e+00 +0.0000000000e+00 +3.5757443636e+01 3.5757443636e+01 0.0000000000e+00 0.0000e+00 1.0000e+00
       21 -1    0    0  501  502 -0.0000000000e+00 -0.0000000000e+00 -1.0924298839e+02 1.0924298839e+02 0.0000000000e+00 0.0000e+00 1.0000e+00
       25  2    1    2    0    0 +0.0000000000e+00 +0.0000000000e+00 -7.3485544755e+01 1.4500043203e+02 1.2500000000e+02 0.0000e+00 0.0000e+00
      -15  1    3    3    0    0 -3.0775257139e+00 +5.7373554419e+01 -6.5200530914e+01 8.6922165595e+01 1.7770000000e+00 0.0000e+00 1.0000e+00
       15  1    3    3    0    0 +3.0714027927e+00 -5.7351590594e+01 -8.2849767050e+00 5.8055465089e+01 1.7770000000e+00 0.0000e+00 1.0000e+00
       22  1    3    3    0    0 +6.1229211928e-03 -2.1963825667e-02 -3.7133525311e-05 2.2801341644e-02 0.0000000000e+00 0.0000e+00 -1.0000e+00
<mgrwt>
<rscale>  2 0.12500000E+03</rscale>
<asrwt>0</asrwt>
<pdfrwt beam="1">  1       21 0.52584476E-02 0.12500000E+03</pdfrwt>
<pdfrwt beam="2">  1       21 0.16065145E-01 0.12500000E+03</pdfrwt>
<totfact> 0.85474183E+06</totfact>
</mgrwt>
</event>
<event>
 6      0 +4.1053447e-01 1.25000000e+02 7.54677100e-03 1.12640300e-01
       21 -1    0    0  502  501 +0.0000000000e+00 +0.0000000000e+00 +9.8050616622e+01 9.8050616622e+01 0.0000000000e+00 0.0000e+00 -1.0000e+00
       21 -1    0    0  501  502 -0.0000000000e+00 -0.0000000000e+00 -3.9839117127e+01 3.9839117127e+01 0.0000000000e+00 0.0000e+00 -1.0000e+00
       25  2    1    2    0    0 +0.0000000000e+00 +0.0000000000e+00 +5.8211499495e+01 1.3788973375e+02 1.2500000000e+02 0.0000e+00 0.0000e+00
      -15  1    3    3    0    0 -5.4877520603e+01 -2.6074942202e+01 +4.5133584513e+01 7.5707615590e+01 1.7770000000e+00 0.0000e+00 -1.0000e+00
       15  1    3    3    0    0 +5.3872641946e+01 +2.5659612605e+01 +1.2725569800e+01 6.1039127820e+01 1.7770000000e+00 0.0000e+00 -1.0000e+00
       22  1    3    3    0    0 +1.0048786569e+00 +4.1532959686e-01 +3.5234518193e-01 1.1429903395e+00 0.0000000000e+00 0.0000e+00 -1.0000e+00
<mgrwt>
<rscale>  2 0.12500000E+03</rscale>
<asrwt>0</asrwt>
<pdfrwt beam="1">  1       21 0.14419208E-01 0.12500000E+03</pdfrwt>
<pdfrwt beam="2">  1       21 0.58586937E-02 0.12500000E+03</pdfrwt>
<totfact> 0.86704326E+06</totfact>
</mgrwt>
</event>
<event>
 6      0 +4.1053447e-01 1.25000000e+02 7.54677100e-03 1.12640300e-01
       21 -1    0    0  502  501 +0.0000000000e+00 +0.0000000000e+00 +1.8862442002e+02 1.8862442002e+02 0.0000000000e+00 0.0000e+00 1.0000e+00
       21 -1    0    0  501  502 -0.0000000000e+00 -0.0000000000e+00 -2.0709142536e+01 2.0709142536e+01 0.0000000000e+00 0.0000e+00 1.0000e+00
       25  2    1    2    0    0 +0.0000000000e+00 +0.0000000000e+00 +1.6791527749e+02 2.0933356256e+02 1.2500000000e+02 0.0000e+00 0.0000e+00
      -15  1    3    3    0    0 -5.1993226118e+01 -3.4173133460e+01 +9.3429922993e+01 1.1226489590e+02 1.7770000000e+00 0.0000e+00 -1.0000e+00
       15  1    3    3    0    0 +5.1992853395e+01 +3.4172755058e+01 +7.4484776860e+01 9.7067881945e+01 1.7770000000e+00 0.0000e+00 -1.0000e+00
       22  1    3    3    0    0 +3.7272336647e-04 +3.7840176578e-04 +5.7763919313e-04 7.8471500667e-04 0.0000000000e+00 0.0000e+00 -1.0000e+00
<mgrwt>
<rscale>  2 0.12500000E+03</rscale>
<asrwt>0</asrwt>
<pdfrwt beam="1">  1       21 0.27738884E-01 0.12500000E+03</pdfrwt>
<pdfrwt beam="2">  1       21 0.30454622E-02 0.12500000E+03</pdfrwt>
<totfact> 0.75478478E+06</totfact>
</mgrwt>
</event>
<event>
 6      0 +4.1053447e-01 1.25000000e+02 7.54677100e-03 1.12640300e-01
       21 -1    0    0  502  501 +0.0000000000e+00 +0.0000000000e+00 +5.4147867688e+00 5.4147867688e+00 0.0000000000e+00 0.0000e+00 1.0000e+00
       21 -1    0    0  501  502 -0.0000000000e+00 -0.0000000000e+00 -7.2140421531e+02 7.2140421531e+02 0.0000000000e+00 0.0000e+00 1.0000e+00
       25  2    1    2    0    0 +0.0000000000e+00 +0.0000000000e+00 -7.1598942854e+02 7.2681900208e+02 1.2500000000e+02 0.0000e+00 0.0000e+00
      -15  1    3    3    0    0 -3.7405416746e+01 +5.6079578711e+00 -6.4710123140e+02 6.4820812692e+02 1.7770000000e+00 0.0000e+00 1.0000e+00
       15  1    3    3    0    0 +3.7402803839e+01 -5.6130288259e+00 -6.8873647343e+01 7.8595247026e+01 1.7770000000e+00 0.0000e+00 1.0000e+00
       22  1    3    3    0    0 +2.6129066404e-03 +5.0709547971e-03 -1.4549715329e-02 1.5628054256e-02 0.0000000000e+00 0.0000e+00 -1.0000e+00
<mgrwt>
<rscale>  2 0.12500000E+03</rscale>
<asrwt>0</asrwt>
<pdfrwt beam="1">  1       21 0.79629250E-03 0.12500000E+03</pdfrwt>
<pdfrwt beam="2">  1       21 0.10608881E+00 0.12500000E+03</pdfrwt>
<totfact> 0.31586913E+06</totfact>
</mgrwt>
</event>
<event>
 6      0 +4.1053447e-01 1.25000000e+02 7.54677100e-03 1.12640300e-01
       21 -1    0    0  502  501 +0.0000000000e+00 +0.0000000000e+00 +9.8330157570e+02 9.8330157570e+02 0.0000000000e+00 0.0000e+00 1.0000e+00
       21 -1    0    0  501  502 -0.0000000000e+00 -0.0000000000e+00 -3.9725859254e+00 3.9725859254e+00 0.0000000000e+00 0.0000e+00 1.0000e+00
       25  2    1    2    0    0 +0.0000000000e+00 +0.0000000000e+00 +9.7932898977e+02 9.8727416162e+02 1.2500000000e+02 0.0000e+00 0.0000e+00
      -15  1    3    3    0    0 +5.7134831293e+01 -2.4853485504e+01 +4.7645928818e+02 4.8051919390e+02 1.7770000000e+00 0.0000e+00 -1.0000e+00
       15  1    3    3    0    0 -5.7218583430e+01 +2.4989490287e+01 +5.0108771693e+02 5.0496583914e+02 1.7770000000e+00 0.0000e+00 -1.0000e+00
       22  1    3    3    0    0 +8.3752136726e-02 -1.3600478322e-01 +1.7819847131e+00 1.7891286257e+00 0.0000000000e+00 0.0000e+00 1.0000e+00
<mgrwt>
<rscale>  2 0.12500000E+03</rscale>
<asrwt>0</asrwt>
<pdfrwt beam="1">  1       21 0.14460300E+00 0.12500000E+03</pdfrwt>
<pdfrwt beam="2">  1       21 0.58420449E-03 0.12500000E+03</pdfrwt>
<totfact> 0.21564826E+06</totfact>
</mgrwt>
</event>
<event>
 6      0 +4.1053447e-01 1.25000000e+02 7.54677100e-03 1.12640300e-01
       21 -1    0    0  502  501 +0.0000000000e+00 +0.0000000000e+00 +9.4497874233e+02 9.4497874233e+02 0.0000000000e+00 0.0000e+00 1.0000e+00
       21 -1    0    0  501  502 -0.0000000000e+00 -0.0000000000e+00 -4.1336908705e+00 4.1336908705e+00 0.0000000000e+00 0.0000e+00 1.0000e+00
       25  2    1    2    0    0 +0.0000000000e+00 +0.0000000000e+00 +9.4084505146e+02 9.4911243320e+02 1.2500000000e+02 0.0000e+00 0.0000e+00
      -15  1    3    3    0    0 -8.7969864647e+00 -4.0430441068e+01 +1.1500666716e+02 1.2223624159e+02 1.7770000000e+00 0.0000e+00 -1.0000e+00
       15  1    3    3    0    0 +8.7970368438e+00 +4.0430528561e+01 +8.2583805999e+02 8.2687585196e+02 1.7770000000e+00 0.0000e+00 -1.0000e+00
       22  1    3    3    0    0 -5.0379108557e-05 -8.7492978805e-05 +3.2435964878e-04 3.3970907800e-04 0.0000000000e+00 0.0000e+00 -1.0000e+00
<mgrwt>
<rscale>  2 0.12500000E+03</rscale>
<asrwt>0</asrwt>
<pdfrwt beam="1">  1       21 0.13896731E+00 0.12500000E+03</pdfrwt>
<pdfrwt beam="2">  1       21 0.60789637E-03 0.12500000E+03</pdfrwt>
<totfact> 0.22765486E+06</totfact>
</mgrwt>
</event>
<event>
 6      0 +4.1053447e-01 1.25000000e+02 7.54677100e-03 1.12640300e-01
       21 -1    0    0  502  501 +0.0000000000e+00 +0.0000000000e+00 +4.7900584182e+01 4.7900584182e+01 0.0000000000e+00 0.0000e+00 1.0000e+00
       21 -1    0    0  501  502 -0.0000000000e+00 -0.0000000000e+00 -8.1549109823e+01 8.1549109823e+01 0.0000000000e+00 0.0000e+00 1.0000e+00
       25  2    1    2    0    0 +0.0000000000e+00 +0.0000000000e+00 -3.3648525641e+01 1.2944969400e+02 1.2500000000e+02 0.0000e+00 0.0000e+00
      -15  1    3    3    0    0 -4.3031142317e+01 +2.7313056211e+01 -5.4219258188e+01 7.4434991343e+01 1.7770000000e+00 0.0000e+00 1.0000e+00
       15  1    3    3    0    0 +4.3038902387e+01 -2.7315813315e+01 +2.0580471753e+01 5.5001948350e+01 1.7770000000e+00 0.0000e+00 1.0000e+00
       22  1    3    3    0    0 -7.7600699804e-03 +2.7571048281e-03 -9.7392072539e-03 1.2754311862e-02 0.0000000000e+00 0.0000e+00 -1.0000e+00
<mgrwt>
<rscale>  2 0.12500000E+03</rscale>
<asrwt>0</asrwt>
<pdfrwt beam="1">  1       21 0.70442035E-02 0.12500000E+03</pdfrwt>
<pdfrwt beam="2">  1       21 0.11992516E-01 0.12500000E+03</pdfrwt>
<totfact> 0.88198075E+06</totfact>
</mgrwt>
</event>
<event>
 6      0 +4.1053447e-01 1.25000000e+02 7.54677100e-03 1.12640300e-01
       21 -1    0    0  502  501 +0.0000000000e+00 +0.0000000000e+00 +1.2258897632e+02 1.2258897632e+02 0.0000000000e+00 0.0000e+00 -1.0000e+00
       21 -1    0    0  501  502 -0.0000000000e+00 -0.0000000000e+00 -3.1864610646e+01 3.1864610646e+01 0.0000000000e+00 0.0000e+00 -1.0000e+00
       25  2    1    2    0    0 +0.0000000000e+00 +0.0000000000e+00 +9.0724365675e+01 1.5445358697e+02 1.2500000000e+02 0.0000e+00 0.0000e+00
      -15  1    3    3    0    0 +2.7536838979e+01 +5.0793082478e+01 +7.4729443530e+01 9.4476781211e+01 1.7770000000e+00 0.0000e+00 1.0000e+00
       15  1    3    3    0    0 -2.7536873530e+01 -5.0793091441e+01 +1.5994897262e+01 5.9976762245e+01 1.7770000000e+00 0.0000e+00 1.0000e+00
       22  1    3    3    0    0 +3.4551067817e-05 +8.9627207530e-06 +2.4880807923e-05 4.3510472917e-05 0.0000000000e+00 0.0000e+00 1.0000e+00
<mgrwt>
<rscale>  2 0.12500000E+03</rscale>
<asrwt>0</asrwt>
<pdfrwt beam="1">  1       21 0.18027790E-01 0.12500000E+03</pdfrwt>
<pdfrwt beam="2">  1       21 0.46859722E-02 0.12500000E+03</pdfrwt>
<totfact> 0.83885354E+06</totfact>
</mgrwt>
</event>
<event>
 6      0 +4.1053447e-01 1.25000000e+02 7.54677100e-03 1.12640300e-01
       21 -1    0    0  502  501 +0.0000000000e+00 +0.0000000000e+00 +8.1234425264e+01 8.1234425264e+01 0.0000000000e+00 0.0000e+00 -1.0000e+00
       21 -1    0    0  501  502 -0.0000000000e+00 -0.0000000000e+00 -4.8086140664e+01 4.8086140664e+01 0.0000000000e+00 0.0000e+00 -1.0000e+00
       25  2    1    2    0    0 +0.0000000000e+00 +0.0000000000e+00 +3.3148284600e+01 1.2932056593e+02 1.2500000000e+02 0.0000e+00 0.0000e+00
      -15  1    3    3    0    0 +1.2875574765e+01 -1.8533190654e+01 -4.3696080517e+01 4.9211429189e+01 1.7770000000e+00 0.0000e+00 -1.0000e+00
       15  1    3    3    0    0 -1.2875565002e+01 +1.8533171311e+01 +7.6844276525e+01 8.0109045536e+01 1.7770000000e+00 0.0000e+00 -1.0000e+00
       22  1    3    3    0    0 -9.7634577914e-06 +1.9342162828e-05 +8.8591104605e-05 9.1202128189e-05 0.0000000000e+00 0.0000e+00 -1.0000e+00
<mgrwt>
<rscale>  2 0.12500000E+03</rscale>
<asrwt>0</asrwt>
<pdfrwt beam="1">  1       21 0.11946239E-01 0.12500000E+03</pdfrwt>
<pdfrwt beam="2">  1       21 0.70714912E-02 0.12500000E+03</pdfrwt>
<totfact> 0.88221461E+06</totfact>
</mgrwt>
</event>
<event>
 6      0 +4.1053447e-01 1.25000000e+02 7.54677100e-03 1.12640300e-01
       21 -1    0    0  502  501 +0.0000000000e+00 +0.0000000000e+00 +5.7242630568e+01 5.7242630568e+01 0.0000000000e+00 0.0000e+00 1.0000e+00
       21 -1    0    0  501  502 -0.0000000000e+00 -0.0000000000e+00 -6.8240225183e+01 6.8240225183e+01 0.0000000000e+00 0.0000e+00 1.0000e+00
       25  2    1    2    0    0 +0.0000000000e+00 +0.0000000000e+00 -1.0997594615e+01 1.2548285575e+02 1.2500000000e+02 0.0000e+00 0.0000e+00
      -15  1    3    3    0    0 +4.5823930313e+01 +3.8059465038e+00 -4.7955964521e+01 6.6462395987e+01 1.7770000000e+00 0.0000e+00 -1.0000e+00
       15  1    3    3    0    0 -4.5823996321e+01 -3.8059388151e+00 +3.6958409267e+01 5.9020382527e+01 1.7770000000e+00 0.0000e+00 -1.0000e+00
       22  1    3    3    0    0 +6.6008340769e-05 -7.6886768979e-06 -3.9361209634e-05 7.7236789339e-05 0.0000000000e+00 0.0000e+00 1.0000e+00
<mgrwt>
<rscale>  2 0.12500000E+03</rscale>
<asrwt>0</asrwt>
<pdfrwt beam="1">  1       21 0.84180339E-02 0.12500000E+03</pdfrwt>
<pdfrwt beam="2">  1       21 0.10035327E-01 0.12500000E+03</pdfrwt>
<totfact> 0.88906643E+06</totfact>
</mgrwt>
</event>
<event>
 6      0 +4.1053447e-01 1.25000000e+02 7.54677100e-03 1.12640300e-01
       21 -1    0    0  502  501 +0.0000000000e+00 +0.0000000000e+00 +4.6808082487e+02 4.6808082487e+02 0.0000000000e+00 0.0000e+00 -1.0000e+00
       21 -1    0    0  501  502 -0.0000000000e+00 -0.0000000000e+00 -8.3452467874e+00 8.3452467874e+00 0.0000000000e+00 0.0000e+00 -1.0000e+00
       25  2    1    2    0    0 +0.0000000000e+00 +0.0000000000e+00 +4.5973557808e+02 4.7642607166e+02 1.2500000000e+02 0.0000e+00 0.0000e+00
      -15  1    3    3    0    0 +4.5919625827e+01 -3.5712687613e+01 +1.4303092645e+02 1.5441830119e+02 1.7770000000e+00 0.0000e+00 1.0000e+00
       15  1    3    3    0    0 -4.5916559974e+01 +3.5710285724e+01 +3.1668531508e+02 3.2198804559e+02 1.7770000000e+00 0.0000e+00 1.0000e+00
       22  1    3    3    0    0 -3.0658531689e-03 +2.4018889462e-03 +1.9336481464e-02 1.9724807770e-02 0.0000000000e+00 0.0000e+00 1.0000e+00
<mgrwt>
<rscale>  2 0.12500000E+03</rscale>
<asrwt>0</asrwt>
<pdfrwt beam="1">  1       21 0.68835398E-01 0.12500000E+03</pdfrwt>
<pdfrwt beam="2">  1       21 0.12272425E-02 0.12500000E+03</pdfrwt>
<totfact> 0.47133271E+06</totfact>
</mgrwt>
</event>
<event>
 6      0 +4.1053447e-01 1.25000000e+02 7.54677100e-03 1.12640300e-01
       21 -1    0    0  502  501 +0.0000000000e+00 +0.0000000000e+00 +2.1144447247e+00 2.1144447247e+00 0.0000000000e+00 0.0000e+00 1.0000e+00
       21 -1    0    0  501  502 -0.0000000000e+00 -0.0000000000e+00 -1.8474117362e+03 1.8474117362e+03 0.0000000000e+00 0.0000e+00 1.0000e+00
       25  2    1    2    0    0 +0.0000000000e+00 +0.0000000000e+00 -1.8452972915e+03 1.8495261809e+03 1.2500000000e+02 0.0000e+00 0.0000e+00
      -15  1    3    3    0    0 +5.9166396551e+01 +1.5249522258e+01 -1.1155005354e+03 1.1171740297e+03 1.7770000000e+00 0.0000e+00 1.0000e+00
       15  1    3    3    0    0 -5.9166215996e+01 -1.5249487494e+01 -7.2979473389e+02 7.3235012073e+02 1.7770000000e+00 0.0000e+00 1.0000e+00
       22  1    3    3    0    0 -1.8055503478e-04 -3.4763869469e-05 -2.0330242015e-03 2.0413221331e-03 0.0000000000e+00 0.0000e+00 -1.0000e+00
<mgrwt>
<rscale>  2 0.12500000E+03</rscale>
<asrwt>0</asrwt>
<pdfrwt beam="1">  1       21 0.31094798E-03 0.12500000E+03</pdfrwt>
<pdfrwt beam="2">  1       21 0.27167800E+00 0.12500000E+03</pdfrwt>
<totfact> 0.65959291E+05</totfact>
</mgrwt>
</event>
<event>
 6      0 +4.1053447e-01 1.25000000e+02 7.54677100e-03 1.12640300e-01
       21 -1    0    0  502  501 +0.0000000000e+00 +0.0000000000e+00 +2.2349688942e+02 2.2349688942e+02 0.0000000000e+00 0.0000e+00 -1.0000e+00
       21 -1    0    0  501  502 -0.0000000000e+00 -0.0000000000e+00 -1.7477871885e+01 1.7477871885e+01 0.0000000000e+00 0.0000e+00 -1.0000e+00
       25  2    1    2    0    0 +0.0000000000e+00 +0.0000000000e+00 +2.0601901753e+02 2.4097476130e+02 1.2500000000e+02 0.0000e+00 0.0000e+00
      -15  1    3    3    0    0 +2.1473197077e+01 +8.9532424209e+00 -8.7502118421e+00 2.4919524050e+01 1.7770000000e+00 0.0000e+00 -1.0000e+00
       15  1    3    3    0    0 -2.1485021412e+01 -8.9534510313e+00 +2.1477649071e+02 2.1604135974e+02 1.7770000000e+00 0.0000e+00 -1.0000e+00
       22  1    3    3    0    0 +1.1824334505e-02 +2.0861042620e-04 -7.2613300647e-03 1.3877511271e-02 0.0000000000e+00 0.0000e+00 1.0000e+00
<mgrwt>
<rscale>  2 0.12500000E+03</rscale>
<asrwt>0</asrwt>
<pdfrwt beam="1">  1       21 0.32867188E-01 0.12500000E+03</pdfrwt>
<pdfrwt beam="2">  1       21 0.25702754E-02 0.12500000E+03</pdfrwt>
<totfact> 0.71177986E+06</totfact>
</mgrwt>
</event>
<event>
 6      0 +4.1053447e-01 1.25000000e+02 7.54677100e-03 1.12640300e-01
       21 -1    0    0  502  501 +0.0000000000e+00 +0.0000000000e+00 +8.5055576054e+01 8.5055576054e+01 0.0000000000e+00 0.0000e+00 -1.0000e+00
       21 -1    0    0  501  502 -0.0000000000e+00 -0.0000000000e+00 -4.5925854379e+01 4.5925854379e+01 0.0000000000e+00 0.0000e+00 -1.0000e+00
       25  2    1    2    0    0 +0.0000000000e+00 +0.0000000000e+00 +3.9129721675e+01 1.3098143043e+02 1.2500000000e+02 0.0000e+00 0.0000e+00
      -15  1    3    3    0    0 -5.2237078192e+01 -1.6566426675e+01 -1.1860749456e+01 5.6098074276e+01 1.7770000000e+00 0.0000e+00 -1.0000e+00
       15  1    3    3    0    0 +5.1350660676e+01 +1.6357510052e+01 +5.0295969043e+01 7.3738054747e+01 1.7770000000e+00 0.0000e+00 -1.0000e+00
       22  1    3    3    0    0 +8.8641751558e-01 +2.0891662246e-01 +6.9450208963e-01 1.1453014099e+00 0.0000000000e+00 0.0000e+00 1.0000e+00
<mgrwt>
<rscale>  2 0.12500000E+03</rscale>
<asrwt>0</asrwt>
<pdfrwt beam="1">  1       21 0.12508173E-01 0.12500000E+03</pdfrwt>
<pdfrwt beam="2">  1       21 0.67538021E-02 0.12500000E+03</pdfrwt>
<totfact> 0.87919440E+06</totfact>
</mgrwt>
</event>
<event>
 6      0 +4.1053447e-01 1.25000000e+02 7.54677100e-03 1.12640300e-01
       21 -1    0    0  502  501 +0.0000000000e+00 +0.0000000000e+00 +5.7356995662e+01 5.7356995662e+01 0.0000000000e+00 0.0000e+00 -1.0000e+00
       21 -1    0    0  501  502 -0.0000000000e+00 -0.0000000000e+00 -6.8104159831e+01 6.8104159831e+01 0.0000000000e+00 0.0000e+00 -1.0000e+00
       25  2    1    2    0    0 +0.0000000000e+00 +0.0000000000e+00 -1.0747164169e+01 1.2546115549e+02 1.2500000000e+02 0.0000e+00 0.0000e+00
      -15  1    3    3    0    0 -4.8586555726e+01 -6.2175501074e+00 -2.9713569337e+00 4.9104969379e+01 1.7770000000e+00 0.0000e+00 1.0000e+00
       15  1    3    3    0    0 +4.3956630556e+01 -7.0158643256e+00 -2.7353658432e+01 5.2276075606e+01 1.7770000000e+00 0.0000e+00 1.0000e+00
       22  1    3    3    0    0 +4.6299251701e+00 +1.3233414433e+01 +1.9577851196e+01 2.4080110508e+01 0.0000000000e+00 0.0000e+00 1.0000e+00
<mgrwt>
<rscale>  2 0.12500000E+03</rscale>
<asrwt>0</asrwt>
<pdfrwt beam="1">  1       21 0.84348524E-02 0.12500000E+03</pdfrwt>
<pdfrwt beam="2">  1       21 0.10015318E-01 0.12500000E+03</pdfrwt>
<totfact> 0.88910709E+06</totfact>
</mgrwt>
</event>
<event>
 6      0 +4.1053447e-01 1.25000000e+02 7.54677100e-03 1.12640300e-01
       21 -1    0    0  502  501 +0.0000000000e+00 +0.0000000000e+00 +6.5597011402e+01 6.5597011402e+01 0.0000000000e+00 0.0000e+00 1.0000e+00
       21 -1    0    0  501  502 -0.0000000000e+00 -0.0000000000e+00 -5.9549206839e+01 5.9549206839e+01 0.0000000000e+00 0.0000e+00 1.0000e+00
       25  2    1    2    0    0 +0.0000000000e+00 +0.0000000000e+00 +6.0478045621e+00 1.2514621824e+02 1.2500000000e+02 0.0000e+00 0.0000e+00
      -15  1    3    3    0    0 -6.2024375246e+01 +5.4060753356e+00 -2.1629517182e+00 6.2322426656e+01 1.7770000000e+00 0.0000e+00 -1.0000e+00
       15  1    3    3    0    0 +6.2024398319e+01 -5.4060760137e+00 +8.2107560442e+00 6.2823768501e+01 1.7770000000e+00 0.0000e+00 -1.0000e+00
       22  1    3    3    0    0 -2.3073210509e-05 +6.7805200782e-07 +2.3610398911e-07 2.3084378761e-05 0.0000000000e+00 0.0000e+00 1.0000e+00
<mgrwt>
<rscale>  2 0.12500000E+03</rscale>
<asrwt>0</asrwt>
<pdfrwt beam="1">  1       21 0.96466194E-02 0.12500000E+03</pdfrwt>
<pdfrwt beam="2">  1       21 0.87572363E-02 0.12500000E+03</pdfrwt>
<totfact> 0.88971557E+06</totfact>
</mgrwt>
</event>
<event>
 6      0 +4.1053447e-01 1.25000000e+02 7.54677100e-03 1.12640300e-01
       21 -1    0    0  502  501 +0.0000000000e+00 +0.0000000000e+00 +4.5341849138e+01 4.5341849138e+01 0.0000000000e+00 0.0000e+00 -1.0000e+00
       21 -1    0    0  501  502 -0.0000000000e+00 -0.0000000000e+00 -8.6151096045e+01 8.6151096045e+01 0.0000000000e+00 0.0000e+00 -1.0000e+00
       25  2    1    2    0    0 +0.0000000000e+00 +0.0000000000e+00 -4.0809246907e+01 1.3149294518e+02 1.2500000000e+02 0.0000e+00 0.0000e+00
      -15  1    3    3    0    0 +3.1957734079e+01 -3.8444130181e+01 +1.9008710683e+01 5.3513892811e+01 1.7770000000e+00 0.0000e+00 -1.0000e+00
       15  1    3    3    0    0 -3.1880018494e+01 +3.8323338185e+01 -5.9658613902e+01 7.7764527714e+01 1.7770000000e+00 0.0000e+00 -1.0000e+00
       22  1    3    3    0    0 -7.7715585211e-02 +1.2079199643e-01 -1.5934368932e-01 2.1452466038e-01 0.0000000000e+00 0.0000e+00 -1.0000e+00
<mgrwt>
<rscale>  2 0.12500000E+03</rscale>
<asrwt>0</asrwt>
<pdfrwt beam="1">  1       21 0.66679191E-02 0.12500000E+03</pdfrwt>
<pdfrwt beam="2">  1       21 0.12669279E-01 0.12500000E+03</pdfrwt>
<totfact> 0.87827185E+06</totfact>
</mgrwt>
</event>
<event>
 6      0 +4.1053447e-01 1.25000000e+02 7.54677100e-03 1.12640300e-01
       21 -1    0    0  502  501 +0.0000000000e+00 +0.0000000000e+00 +1.0094317970e+01 1.0094317970e+01 0.0000000000e+00 0.0000e+00 1.0000e+00
       21 -1    0    0  501  502 -0.0000000000e+00 -0.0000000000e+00 -3.8697512912e+02 3.8697512912e+02 0.0000000000e+00 0.0000e+00 1.0000e+00
       25  2    1    2    0    0 +0.0000000000e+00 +0.0000000000e+00 -3.7688081115e+02 3.9706944709e+02 1.2500000000e+02 0.0000e+00 0.0000e+00
      -15  1    3    3    0    0 +5.1310840494e+00 +5.8349677257e+01 -1.1942386599e+02 1.3302717901e+02 1.7770000000e+00 0.0000e+00 -1.0000e+00
       15  1    3    3    0    0 -5.1306168027e+00 -5.8339408553e+01 -2.5742505530e+02 2.6400876244e+02 1.7770000000e+00 0.0000e+00 -1.0000e+00
       22  1    3    3    0    0 -4.6724668943e-04 -1.0268704121e-02 -3.1889872413e-02 3.3505649766e-02 0.0000000000e+00 0.0000e+00 -1.0000e+00
<mgrwt>
<rscale>  2 0.12500000E+03</rscale>
<asrwt>0</asrwt>
<pdfrwt beam="1">  1       21 0.14844582E-02 0.12500000E+03</pdfrwt>
<pdfrwt beam="2">  1       21 0.56908121E-01 0.12500000E+03</pdfrwt>
<totfact> 0.53927472E+06</totfact>
</mgrwt>
</event>
<event>
 6      0 +4.1053447e-01 1.25000000e+02 7.54677100e-03 1.12640300e-01
       21 -1    0    0  502  501 +0.0000000000e+00 +0.0000000000e+00 +2.1760112206e+02 2.1760112206e+02 0.0000000000e+00 0.0000e+00 1.0000e+00
       21 -1    0    0  501  502 -0.0000000000e+00 -0.0000000000e+00 -1.7951423977e+01 1.7951423977e+01 0.0000000000e+00 0.0000e+00 1.0000e+00
       25  2    1    2    0    0 +0.0000000000e+00 +0.0000000000e+00 +1.9964969808e+02 2.3555254604e+02 1.2500000000e+02 0.0000e+00 0.0000e+00
      -15  1    3    3    0    0 -2.3295915080e+01 -3.4622159169e+01 +1.2210696327e+01 4.3516116540e+01 1.7770000000e+00 0.0000e+00 -1.0000e+00
       15  1    3    3    0    0 +2.3296054929e+01 +3.4622260962e+01 +1.8743893427e+02 1.9203624382e+02 1.7770000000e+00 0.0000e+00 -1.0000e+00
       22  1    3    3    0    0 -1.3984855565e-04 -1.0179318066e-04 +6.7464404517e-05 1.8566344828e-04 0.0000000000e+00 0.0000e+00 -1.0000e+00
<mgrwt>
<rscale>  2 0.12500000E+03</rscale>
<asrwt>0</asrwt>
<pdfrwt beam="1">  1       21 0.32000163E-01 0.12500000E+03</pdfrwt>
<pdfrwt beam="2">  1       21 0.26399154E-02 0.12500000E+03</pdfrwt>
<totfact> 0.71895806E+06</totfact>
</mgrwt>
</event>
<event>
 6      0 +4.1053447e-01 1.25000000e+02 7.54677100e-03 1.12640300e-01
       21 -1    0    0  502  501 +0.0000000000e+00 +0.0000000000e+00 +3.8692134177e+01 3.8692134177e+01 0.0000000000e+00 0.0000e+00 1.0000e+00
       21 -1    0    0  501  502 -0.0000000000e+00 -0.0000000000e+00 -1.0095721218e+02 1.0095721218e+02 0.0000000000e+00 0.0000e+00 1.0000e+00
       25  2    1    2    0    0 +0.0000000000e+00 +0.0000000000e+00 -6.2265078008e+01 1.3964934636e+02 1.2500000000e+02 0.0000e+00 0.0000e+00
      -15  1    3    3    0    0 -5.2458868313e+01 +1.5508587962e+01 +2.5808334401e+00 5.4792952061e+01 1.7770000000e+00 0.0000e+00 1.0000e+00
       15  1    3    3    0    0 +5.2458897868e+01 -1.5508602287e+01 -6.4845906382e+01 8.4856361070e+01 1.7770000000e+00 0.0000e+00 1.0000e+00
       22  1    3    3    0    0 -2.9555100734e-05 +1.4325256974e-05 -5.0665170509e-06 3.3232312014e-05 0.0000000000e+00 0.0000e+00 1.0000e+00
<mgrwt>
<rscale>  2 0.12500000E+03</rscale>
<asrwt>0</asrwt>
<pdfrwt beam="1">  1       21 0.56900197E-02 0.12500000E+03</pdfrwt>
<pdfrwt beam="2">  1       21 0.14846649E-01 0.12500000E+03</pdfrwt>
<totfact> 0.86400912E+06</totfact>
</mgrwt>
</event>
<event>
 6      0 +4.1053447e-01 1.25000000e+02 7.54677100e-03 1.12640300e-01
       21 -1    0    0  502  501 +0.0000000000e+00 +0.0000000000e+00 +1.8576996975e+02 1.8576996975e+02 0.0000000000e+00 0.0000e+00 1.0000e+00
       21 -1    0    0  501  502 -0.0000000000e+00 -0.0000000000e+00 -2.1027349066e+01 2.1027349066e+01 0.0000000000e+00 0.0000e+00 1.0000e+00
       25  2    1    2    0    0 +0.0000000000e+00 +0.0000000000e+00 +1.6474262069e+02 2.0679731882e+02 1.2500000000e+02 0.0000e+00 0.0000e+00
      -15  1    3    3    0    0 +2.7120820820e+01 -3.3780973589e+01 +1.5684406021e+02 1.6272648848e+02 1.7770000000e+00 0.0000e+00 1.0000e+00
       15  1    3    3    0    0 -2.7120820398e+01 +3.3780973285e+01 +7.8985602933e+00 4.4070829796e+01 1.7770000000e+00 0.0000e+00 1.0000e+00
       22  1    3    3    0    0 -4.2240242362e-07 +3.0366466955e-07 +1.8767268603e-07 5.5304346673e-07 0.0000000000e+00 0.0000e+00 1.0000e+00
<mgrwt>
<rscale>  2 0.12500000E+03</rscale>
<asrwt>0</asrwt>
<pdfrwt beam="1">  1       21 0.27319112E-01 0.12500000E+03</pdfrwt>
<pdfrwt beam="2">  1       21 0.30922573E-02 0.12500000E+03</pdfrwt>
<totfact> 0.75838627E+06</totfact>
</mgrwt>
</event>
<event>
 6      0 +4.1053447e-01 1.25000000e+02 7.54677100e-03 1.12640300e-01
       21 -1    0    0  502  501 +0.0000000000e+00 +0.0000000000e+00 +4.9223881837e+01 4.9223881837e+01 0.0000000000e+00 0.0000e+00 1.0000e+00
       21 -1    0    0  501  502 -0.0000000000e+00 -0.0000000000e+00 -7.9356805156e+01 7.9356805156e+01 0.0000000000e+00 0.0000e+00 1.0000e+00
       25  2    1    2    0    0 +0.0000000000e+00 +0.0000000000e+00 -3.0132923319e+01 1.2858068699e+02 1.2500000000e+02 0.0000e+00 0.0000e+00
      -15  1    3    3    0    0 +1.0526600821e+01 +4.0387121764e+00 +4.5418417385e+01 4.6830661832e+01 1.7770000000e+00 0.0000e+00 1.0000e+00
       15  1    3    3    0    0 -9.9061414763e+00 -7.5191462705e+00 -7.6934721676e+01 7.7953693485e+01 1.7770000000e+00 0.0000e+00 1.0000e+00
       22  1    3    3    0    0 -6.2045934475e-01 +3.4804340941e+00 +1.3833809721e+00 3.7963316762e+00 0.0000000000e+00 0.0000e+00 1.0000e+00
<mgrwt>
<rscale>  2 0.12500000E+03</rscale>
<asrwt>0</asrwt>
<pdfrwt beam="1">  1       21 0.72388063E-02 0.12500000E+03</pdfrwt>
<pdfrwt beam="2">  1       21 0.11670118E-01 0.12500000E+03</pdfrwt>
<totfact> 0.88354549E+06</totfact>
</mgrwt>
</event>
<event>
 6      0 +4.1053447e-01 1.25000000e+02 7.54677100e-03 1.12640300e-01
       21 -1    0    0  502  501 +0.0000000000e+00 +0.0000000000e+00 +4.7183476695e+01 4.7183476695e+01 0.0000000000e+00 0.0000e+00 1.0000e+00
       21 -1    0    0  501  502 -0.0000000000e+00 -0.0000000000e+00 -8.2788515676e+01 8.2788515676e+01 0.0000000000e+00 0.0000e+00 1.0000e+00
       25  2    1    2    0    0 +0.0000000000e+00 +0.0000000000e+00 -3.5605038981e+01 1.2997199237e+02 1.2500000000e+02 0.0000e+00 0.0000e+00
      -15  1    3    3    0    0 +1.0633469365e+01 -3.3463433013e+01 -7.1530283667e+01 7.9703269884e+01 1.7770000000e+00 0.0000e+00 1.0000e+00
       15  1    3    3    0    0 -1.0640131660e+01 +3.3437142949e+01 +3.5899324769e+01 5.0231207215e+01 1.7770000000e+00 0.0000e+00 1.0000e+00
       22  1    3    3    0    0 +6.6622948538e-03 +2.6290064321e-02 +2.5919915445e-02 3.7515272508e-02 0.0000000000e+00 0.0000e+00 -1.0000e+00
<mgrwt>
<rscale>  2 0.12500000E+03</rscale>
<asrwt>0</asrwt>
<pdfrwt beam="1">  1       21 0.69387467E-02 0.12500000E+03</pdfrwt>
<pdfrwt beam="2">  1       21 0.12174782E-01 0.12500000E+03</pdfrwt>
<totfact> 0.88103076E+06</totfact>
</mgrwt>
</event>
<event>
 6      0 +4.1053447e-01 1.25000000e+02 7.54677100e-03 1.12640300e-01
       21 -1    0    0  502  501 +0.0000000000e+00 +0.0000000000e+00 +2.4721014020e+02 2.4721014020e+02 0.0000000000e+00 0.0000e+00 -1.0000e+00
       21 -1    0    0  501  502 -0.0000000000e+00 -0.0000000000e+00 -1.5801334026e+01 1.5801334026e+01 0.0000000000e+00 0.0000e+00 -1.0000e+00
       25  2    1    2    0    0 +0.0000000000e+00 +0.0000000000e+00 +2.3140880617e+02 2.6301147423e+02 1.2500000000e+02 0.0000e+00 0.0000e+00
      -15  1    3    3    0    0 +5.6393960277e+01 +2.0211196725e+01 +7.8402601867e+01 9.8685849732e+01 1.7770000000e+00 0.0000e+00 1.0000e+00
       15  1    3    3    0    0 -5.6394184360e+01 -2.0210899981e+01 +1.5300594863e+02 1.6432517322e+02 1.7770000000e+00 0.0000e+00 1.0000e+00
       22  1    3    3    0    0 +2.2408309977e-04 -2.9674443739e-04 +2.5564226622e-04 4.5124656786e-04 0.0000000000e+00 0.0000e+00 1.0000e+00
<mgrwt>
<rscale>  2 0.12500000E+03</rscale>
<asrwt>0</asrwt>
<pdfrwt beam="1">  1       21 0.36354430E-01 0.12500000E+03</pdfrwt>
<pdfrwt beam="2">  1       21 0.23237257E-02 0.12500000E+03</pdfrwt>
<totfact> 0.68359093E+06</totfact>
</mgrwt>
</event>
<event>
 6      0 +4.1053447e-01 1.25000000e+02 7.54677100e-03 1.12640300e-01
       21 -1    0    0  502  501 +0.0000000000e+00 +0.0000000000e+00 +8.3676056126e+02 8.3676056126e+02 0.0000000000e+00 0.0000e+00 1.0000e+00
       21 -1    0    0  501  502 -0.0000000000e+00 -0.0000000000e+00 -4.6683008029e+00 4.6683008029e+00 0.0000000000e+00 0.0000e+00 1.0000e+00
       25  2    1    2    0    0 +0.0000000000e+00 +0.0000000000e+00 +8.3209226046e+02 8.4142886207e+02 1.2500000000e+02 0.0000e+00 0.0000e+00
      -15  1    3    3    0    0 -5.4236556678e+01 -3.0882664131e+01 +4.3470391211e+02 4.3916510786e+02 1.7770000000e+00 0.0000e+00 1.0000e+00
       15  1    3    3    0    0 +5.4235921170e+01 +3.0881820936e+01 +3.9738655309e+02 4.0226167145e+02 1.7770000000e+00 0.0000e+00 1.0000e+00
       22  1    3    3    0    0 +6.3550820668e-04 +8.4319456026e-04 +1.7950683587e-03 2.0825748870e-03 0.0000000000e+00 0.0000e+00 -1.0000e+00
<mgrwt>
<rscale>  2 0.12500000E+03</rscale>
<asrwt>0</asrwt>
<pdfrwt beam="1">  1       21 0.12305292E+00 0.12500000E+03</pdfrwt>
<pdfrwt beam="2">  1       21 0.68651540E-03 0.12500000E+03</pdfrwt>
<totfact> 0.26606845E+06</totfact>
</mgrwt>
</event>
<event>
 6      0 +4.1053447e-01 1.25000000e+02 7.54677100e-03 1.12640300e-01
       21 -1    0    0  502  501 +0.0000000000e+00 +0.0000000000e+00 +3.8854469692e+02 3.8854469692e+02 0.0000000000e+00 0.0000e+00 -1.0000e+00
       21 -1    0    0  501  502 -0.0000000000e+00 -0.0000000000e+00 -1.0053540895e+01 1.0053540895e+01 0.0000000000e+00 0.0000e+00 -1.0000e+00
       25  2    1    2    0    0 +0.0000000000e+00 +0.0000000000e+00 +3.7849115602e+02 3.9859823781e+02 1.2500000000e+02 0.0000e+00 0.0000e+00
      -15  1    3    3    0    0 -1.8623254337e+01 +5.9631252153e+01 +1.9121232908e+02 2.0116665817e+02 1.7770000000e+00 0.0000e+00 -1.0000e+00
       15  1    3    3    0    0 +1.8623254603e+01 -5.9631251777e+01 +1.8727882655e+02 1.9743157904e+02 1.7770000000e+00 0.0000e+00 -1.0000e+00
       22  1    3    3    0    0 -2.6525217879e-07 -3.7677896497e-07 +3.8985447312e-07 6.0357900643e-07 0.0000000000e+00 0.0000e+00 1.0000e+00
<mgrwt>
<rscale>  2 0.12500000E+03</rscale>
<asrwt>0</asrwt>
<pdfrwt beam="1">  1       21 0.57138916E-01 0.12500000E+03</pdfrwt>
<pdfrwt beam="2">  1       21 0.14784622E-02 0.12500000E+03</pdfrwt>
<totfact> 0.53785600E+06</totfact>
</mgrwt>
</event>
<event>
 6      0 +4.1053447e-01 1.25000000e+02 7.54677100e-03 1.12640300e-01
       21 -1    0    0  502  501 +0.0000000000e+00 +0.0000000000e+00 +6.2729306813e+01 6.2729306813e+01 0.0000000000e+00 0.0000e+00 -1.0000e+00
       21 -1    0    0  501  502 -0.0000000000e+00 -0.0000000000e+00 -6.2271531417e+01 6.2271531417e+01 0.0000000000e+00 0.0000e+00 -1.0000e+00
       25  2    1    2    0    0 +0.0000000000e+00 +0.0000000000e+00 +4.5777539544e-01 1.2500083823e+02 1.2500000000e+02 0.0000e+00 0.0000e+00
      -15  1    3    3    0    0 +9.1853806408e+00 +2.4286276047e+00 -6.1519448124e+01 6.2274149341e+01 1.7770000000e+00 0.0000e+00 -1.0000e+00
       15  1    3    3    0    0 -9.1861618127e+00 -2.4281272294e+00 +6.1974243976e+01 6.2723568266e+01 1.7770000000e+00 0.0000e+00 -1.0000e+00
       22  1    3    3    0    0 +7.8117186342e-04 -5.0037537986e-04 +2.9795443868e-03 3.1206232958e-03 0.0000000000e+00 0.0000e+00 1.0000e+00
<mgrwt>
<rscale>  2 0.12500000E+03</rscale>
<asrwt>0</asrwt>
<pdfrwt beam="1">  1       21 0.92248981E-02 0.12500000E+03</pdfrwt>
<pdfrwt beam="2">  1       21 0.91575781E-02 0.12500000E+03</pdfrwt>
<totfact> 0.89002082E+06</totfact>
</mgrwt>
</event>
<event>
 6      0 +4.1053447e-01 1.25000000e+02 7.54677100e-03 1.12640300e-01
       21 -1    0    0  502  501 +0.0000000000e+00 +0.0000000000e+00 +2.0182943176e+02 2.0182943176e+02 0.0000000000e+00 0.0000e+00 -1.0000e+00
       21 -1    0    0  501  502 -0.0000000000e+00 -0.0000000000e+00 -1.9354213931e+01 1.9354213931e+01 0.0000000000e+00 0.0000e+00 -1.0000e+00
       25  2    1    2    0    0 +0.0000000000e+00 +0.0000000000e+00 +1.8247521783e+02 2.2118364570e+02 1.2500000000e+02 0.0000e+00 0.0000e+00
      -15  1    3    3    0    0 -4.2474726994e+01 -3.4842536940e+01 +3.8598134373e+01 6.7164562976e+01 1.7770000000e+00 0.0000e+00 1.0000e+00
       15  1    3    3    0    0 +4.2474727036e+01 +3.4842536919e+01 +1.4387707590e+02 1.5401907517e+02 1.7770000000e+00 0.0000e+00 1.0000e+00
       22  1    3    3    0    0 -4.2353133941e-08 +2.1106336675e-08 +7.5363328155e-06 7.5364813787e-06 0.0000000000e+00 0.0000e+00 1.0000e+00
<mgrwt>
<rscale>  2 0.12500000E+03</rscale>
<asrwt>0</asrwt>
<pdfrwt beam="1">  1       21 0.29680798E-01 0.12500000E+03</pdfrwt>
<pdfrwt beam="2">  1       21 0.28462080E-02 0.12500000E+03</pdfrwt>
<totfact> 0.73831076E+06</totfact>
</mgrwt>
</event>
<event>
 6      0 +4.1053447e-01 1.25000000e+02 7.54677100e-03 1.12640300e-01
       21 -1    0    0  502  501 +0.0000000000e+00 +0.0000000000e+00 +6.4109611810e+01 6.4109611810e+01 0.0000000000e+00 0.0000e+00 1.0000e+00
       21 -1    0    0  501  502 -0.0000000000e+00 -0.0000000000e+00 -6.0930801009e+01 6.0930801009e+01 0.0000000000e+00 0.0000e+00 1.0000e+00
       25  2    1    2    0    0 +0.0000000000e+00 +0.0000000000e+00 +3.1788108010e+00 1.2504041282e+02 1.2500000000e+02 0.0000e+00 0.0000e+00
      -15  1    3    3    0    0 +5.0614881284e+01 -1.5624404983e+01 +3.4722672413e+01 6.3362527941e+01 1.7770000000e+00 0.0000e+00 1.0000e+00
       15  1    3    3    0    0 -5.0614812488e+01 +1.5624366815e+01 -3.1543830143e+01 6.1677800145e+01 1.7770000000e+00 0.0000e+00 1.0000e+00
       22  1    3    3    0    0 -6.8795935825e-05 +3.8168052166e-05 -3.1468384712e-05 8.4734527960e-05 0.0000000000e+00 0.0000e+00 1.0000e+00
<mgrwt>
<rscale>  2 0.12500000E+03</rscale>
<asrwt>0</asrwt>
<pdfrwt beam="1">  1       21 0.94278841E-02 0.12500000E+03</pdfrwt>
<pdfrwt beam="2">  1       21 0.89604119E-02 0.12500000E+03</pdfrwt>
<totfact> 0.88993698E+06</totfact>
</mgrwt>
</event>
<event>
 6      0 +4.1053447e-01 1.25000000e+02 7.54677100e-03 1.12640300e-01
       21 -1    0    0  502  501 +0.0000000000e+00 +0.0000000000e+00 +6.8284747470e+01 6.8284747470e+01 0.0000000000e+00 0.0000e+00 -1.0000e+00
       21 -1    0    0  501  502 -0.0000000000e+00 -0.0000000000e+00 -5.7205307843e+01 5.7205307843e+01 0.0000000000e+00 0.0000e+00 -1.0000e+00
       25  2    1    2    0    0 +0.0000000000e+00 +0.0000000000e+00 +1.1079439627e+01 1.2549005531e+02 1.2500000000e+02 0.0000e+00 0.0000e+00
      -15  1    3    3    0    0 -2.1776770278e+01 -5.0215811769e+01 -2.4698737138e+01 6.0075292929e+01 1.7770000000e+00 0.0000e+00 1.0000e+00
       15  1    3    3    0    0 +2.1776770260e+01 +5.0215811763e+01 +3.5778176751e+01 6.5414762360e+01 1.7770000000e+00 0.0000e+00 1.0000e+00
       22  1    3    3    0    0 +1.8159990190e-08 +5.3543602679e-09 +1.4885942998e-08 2.4084138277e-08 0.0000000000e+00 0.0000e+00 -1.0000e+00
<mgrwt>
<rscale>  2 0.12500000E+03</rscale>
<asrwt>0</asrwt>
<pdfrwt beam="1">  1       21 0.10041875E-01 0.12500000E+03</pdfrwt>
<pdfrwt beam="2">  1       21 0.84125452E-02 0.12500000E+03</pdfrwt>
<totfact> 0.88905296E+06</totfact>
</mgrwt>
</event>
<event>
 6      0 +4.1053447e-01 1.25000000e+02 7.54677100e-03 1.12640300e-01
       21 -1    0    0  502  501 +0.0000000000e+00 +0.0000000000e+00 +1.2105570951e+01 1.2105570951e+01 0.0000000000e+00 0.0000e+00 -1.0000e+00
       21 -1    0    0  501  502 -0.0000000000e+00 -0.0000000000e+00 -3.2268201275e+02 3.2268201275e+02 0.0000000000e+00 0.0000e+00 -1.0000e+00
       25  2    1    2    0    0 +0.0000000000e+00 +0.0000000000e+00 -3.1057644180e+02 3.3478758370e+02 1.2500000000e+02 0.0000e+00 0.0000e+00
      -15  1    3    3    0    0 -5.6024214815e+01 +1.7076204153e+01 -2.1352404149e+02 2.2141811899e+02 1.7770000000e+00 0.0000e+00 -1.0000e+00
       15  1    3    3    0    0 +5.6024214815e+01 -1.7076204155e+01 -9.7052400313e+01 1.1336946471e+02 1.7770000000e+00 0.0000e+00 -1.0000e+00
       22  1    3    3    0    0 -3.3836788702e-11 +2.1663932552e-09 -9.2120883484e-09 9.4634547816e-09 0.0000000000e+00 0.0000e+00 -1.0000e+00
<mgrwt>
<rscale>  2 0.12500000E+03</rscale>
<asrwt>0</asrwt>
<pdfrwt beam="1">  1       21 0.17802309E-02 0.12500000E+03</pdfrwt>
<pdfrwt beam="2">  1       21 0.47453240E-01 0.12500000E+03</pdfrwt>
<totfact> 0.60113435E+06</totfact>
</mgrwt>
</event>
<event>
 6      0 +4.1053447e-01 1.25000000e+02 7.54677100e-03 1.12640300e-01
       21 -1    0    0  502  501 +0.0000000000e+00 +0.0000000000e+00 +8.4983306876e+00 8.4983306876e+00 0.0000000000e+00 0.0000e+00 -1.0000e+00
       21 -1    0    0  501  502 -0.0000000000e+00 -0.0000000000e+00 -4.5964909387e+02 4.5964909387e+02 0.0000000000e+00 0.0000e+00 -1.0000e+00
       25  2    1    2    0    0 +0.0000000000e+00 +0.0000000000e+00 -4.5115076319e+02 4.6814742456e+02 1.2500000000e+02 0.0000e+00 0.0000e+00
      -15  1    3    3    0    0 +3.4990205439e+01 -3.0416638799e+01 -3.8240880484e+02 3.8521310743e+02 1.7770000000e+00 0.0000e+00 -1.0000e+00
       15  1    3    3    0    0 -3.4990205438e+01 +3.0416638798e+01 -6.8741958419e+01 8.2934317195e+01 1.7770000000e+00 0.0000e+00 -1.0000e+00
       22  1    3    3    0    0 -1.9072440984e-10 +8.0308678388e-10 -2.2118273924e-09 2.3608271001e-09 0.0000000000e+00 0.0000e+00 1.0000e+00
<mgrwt>
<rscale>  2 0.12500000E+03</rscale>
<asrwt>0</asrwt>
<pdfrwt beam="1">  1       21 0.12497539E-02 0.12500000E+03</pdfrwt>
<pdfrwt beam="2">  1       21 0.67595487E-01 0.12500000E+03</pdfrwt>
<totfact> 0.47792693E+06</totfact>
</mgrwt>
</event>
<event>
 6      0 +4.1053447e-01 1.25000000e+02 7.54677100e-03 1.12640300e-01
       21 -1    0    0  502  501 +0.0000000000e+00 +0.0000000000e+00 +4.9648729913e+01 4.9648729913e+01 0.0000000000e+00 0.0000e+00 -1.0000e+00
       21 -1    0    0  501  502 -0.0000000000e+00 -0.0000000000e+00 -7.8677742750e+01 7.8677742750e+01 0.0000000000e+00 0.0000e+00 -1.0000e+00
       25  2    1    2    0    0 +0.0000000000e+00 +0.0000000000e+00 -2.9029012837e+01 1.2832647266e+02 1.2500000000e+02 0.0000e+00 0.0000e+00
      -15  1    3    3    0    0 +6.1395898609e+01 +2.5060325256e+00 -2.6100022948e+01 6.6784021232e+01 1.7770000000e+00 0.0000e+00 -1.0000e+00
       15  1    3    3    0    0 -6.1395898804e+01 -2.5060325752e+00 -2.9289897666e+00 6.1542451196e+01 1.7770000000e+00 0.0000e+00 -1.0000e+00
       22  1    3    3    0    0 +1.9499690046e-07 +4.9568757699e-08 -1.2401810807e-07 2.3635004560e-07 0.0000000000e+00 0.0000e+00 -1.0000e+00
<mgrwt>
<rscale>  2 0.12500000E+03</rscale>
<asrwt>0</asrwt>
<pdfrwt beam="1">  1       21 0.73012839E-02 0.12500000E+03</pdfrwt>
<pdfrwt beam="2">  1       21 0.11570256E-01 0.12500000E+03</pdfrwt>
<totfact> 0.88399863E+06</totfact>
</mgrwt>
</event>
<event>
 6      0 +4.1053447e-01 1.25000000e+02 7.54677100e-03 1.12640300e-01
       21 -1    0    0  502  501 +0.0000000000e+00 +0.0000000000e+00 +3.5640040731e+02 3.5640040731e+02 0.0000000000e+00 0.0000e+00 1.0000e+00
       21 -1    0    0  501  502 -0.0000000000e+00 -0.0000000000e+00 -1.0960284893e+01 1.0960284893e+01 0.0000000000e+00 0.0000e+00 1.0000e+00
       25  2    1    2    0    0 +0.0000000000e+00 +0.0000000000e+00 +3.4544012241e+02 3.6736069220e+02 1.2500000000e+02 0.0000e+00 0.0000e+00
      -15  1    3    3    0    0 -3.8065581230e+01 +1.4331812895e+01 +3.1200262082e+02 3.1464771167e+02 1.7770000000e+00 0.0000e+00 -1.0000e+00
       15  1    3    3    0    0 +3.1975310719e+01 -1.2518374879e+01 +2.7762467755e+01 4.4193240999e+01 1.7770000000e+00 0.0000e+00 -1.0000e+00
       22  1    3    3    0    0 +6.0902705109e+00 -1.8134380160e+00 +5.6750338045e+00 8.5197394923e+00 0.0000000000e+00 0.0000e+00 1.0000e+00
<mgrwt>
<rscale>  2 0.12500000E+03</rscale>
<asrwt>0</asrwt>
<pdfrwt beam="1">  1       21 0.52411817E-01 0.12500000E+03</pdfrwt>
<pdfrwt beam="2">  1       21 0.16118068E-02 0.12500000E+03</pdfrwt>
<totfact> 0.56780812E+06</totfact>
</mgrwt>
</event>
<event>
 6      0 +4.1053447e-01 1.25000000e+02 7.54677100e-03 1.12640300e-01
       21 -1    0    0  502  501 +0.0000000000e+00 +0.0000000000e+00 +6.7097016463e+02 6.7097016463e+02 0.0000000000e+00 0.0000e+00 -1.0000e+00
       21 -1    0    0  501  502 -0.0000000000e+00 -0.0000000000e+00 -5.8217938828e+00 5.8217938828e+00 0.0000000000e+00 0.0000e+00 -1.0000e+00
       25  2    1    2    0    0 +0.0000000000e+00 +0.0000000000e+00 +6.6514837075e+02 6.7679195852e+02 1.2500000000e+02 0.0000e+00 0.0000e+00
      -15  1    3    3    0    0 +4.2683184646e+01 -2.7432086025e+01 +1.3521302209e+02 1.4443023460e+02 1.7770000000e+00 0.0000e+00 1.0000e+00
       15  1    3    3    0    0 -4.2683184663e+01 +2.7432086029e+01 +5.2993534851e+02 5.3236172376e+02 1.7770000000e+00 0.0000e+00 1.0000e+00
       22  1    3    3    0    0 +1.7033659719e-08 -4.2396959015e-09 +2.7419872694e-08 3.2557180518e-08 0.0000000000e+00 0.0000e+00 1.0000e+00
<mgrwt>
<rscale>  2 0.12500000E+03</rscale>
<asrwt>0</asrwt>
<pdfrwt beam="1">  1       21 0.98672030E-01 0.12500000E+03</pdfrwt>
<pdfrwt beam="2">  1       21 0.85614662E-03 0.12500000E+03</pdfrwt>
<totfact> 0.34116351E+06</totfact>
</mgrwt>
</event>
<event>
 6      0 +4.1053447e-01 1.25000000e+02 7.54677100e-03 1.12640300e-01
       21 -1    0    0  502  501 +0.0000000000e+00 +0.0000000000e+00 +2.5024211677e+02 2.5024211677e+02 0.0000000000e+00 0.0000e+00 -1.0000e+00
       21 -1    0    0  501  502 -0.0000000000e+00 -0.0000000000e+00 -1.5609882343e+01 1.5609882343e+01 0.0000000000e+00 0.0000e+00 -1.0000e+00
       25  2    1    2    0    0 +0.0000000000e+00 +0.0000000000e+00 +2.3463223443e+02 2.6585199911e+02 1.2500000000e+02 0.0000e+00 0.0000e+00
      -15  1    3    3    0    0 +5.5160396598e+01 -2.5604413095e+01 +8.7972169719e+01 1.0696034638e+02 1.7770000000e+00 0.0000e+00 -1.0000e+00
       15  1    3    3    0    0 -2.5253539307e+01 +1.0944633377e+01 +7.3592952910e+01 7.8591390714e+01 1.7770000000e+00 0.0000e+00 -1.0000e+00
       22  1    3    3    0    0 -2.9906857291e+01 +1.4659779718e+01 +7.3067111821e+01 8.0300262043e+01 0.0000000000e+00 0.0000e+00 -1.0000e+00
<mgrwt>
<rscale>  2 0.12500000E+03</rscale>
<asrwt>0</asrwt>
<pdfrwt beam="1">  1       21 0.36800309E-01 0.12500000E+03</pdfrwt>
<pdfrwt beam="2">  1       21 0.22955711E-02 0.12500000E+03</pdfrwt>
<totfact> 0.68007439E+06</totfact>
</mgrwt>
</event>
<event>
 6      0 +4.1053447e-01 1.25000000e+02 7.54677100e-03 1.12640300e-01
       21 -1    0    0  502  501 +0.0000000000e+00 +0.0000000000e+00 +2.6940665893e+02 2.6940665893e+02 0.0000000000e+00 0.0000e+00 1.0000e+00
       21 -1    0    0  501  502 -0.0000000000e+00 -0.0000000000e+00 -1.4499456010e+01 1.4499456010e+01 0.0000000000e+00 0.0000e+00 1.0000e+00
       25  2    1    2    0    0 +0.0000000000e+00 +0.0000000000e+00 +2.5490720292e+02 2.8390611494e+02 1.2500000000e+02 0.0000e+00 0.0000e+00
      -15  1    3    3    0    0 +4.6035368363e+01 +2.9573833469e+01 +1.9592666479e+02 2.0343127210e+02 1.7770000000e+00 0.0000e+00 1.0000e+00
       15  1    3    3    0    0 -4.4866499903e+01 -2.8783868786e+01 +5.7594365570e+01 7.8497022812e+01 1.7770000000e+00 0.0000e+00 1.0000e+00
       22  1    3    3    0    0 -1.1688684595e+00 -7.8996468365e-01 +1.3861725655e+00 1.9778200267e+00 0.0000000000e+00 0.0000e+00 1.0000e+00
<mgrwt>
<rscale>  2 0.12500000E+03</rscale>
<asrwt>0</asrwt>
<pdfrwt beam="1">  1       21 0.39618623E-01 0.12500000E+03</pdfrwt>
<pdfrwt beam="2">  1       21 0.21322731E-02 0.12500000E+03</pdfrwt>
<totfact> 0.65827137E+06</totfact>
</mgrwt>
</event>
<event>
 6      0 +4.1053447e-01 1.25000000e+02 7.54677100e-03 1.12640300e-01
       21 -1    0    0  502  501 +0.0000000000e+00 +0.0000000000e+00 +1.3334183539e+02 1.3334183539e+02 0.0000000000e+00 0.0000e+00 -1.0000e+00
       21 -1    0    0  501  502 -0.0000000000e+00 -0.0000000000e+00 -2.9295006991e+01 2.9295006991e+01 0.0000000000e+00 0.0000e+00 -1.0000e+00
       25  2    1    2    0    0 +0.0000000000e+00 +0.0000000000e+00 +1.0404682840e+02 1.6263684238e+02 1.2500000000e+02 0.0000e+00 0.0000e+00
      -15  1    3    3    0    0 -4.8414490984e+01 +2.7703870884e+01 +8.8628360705e+01 1.0473591289e+02 1.7770000000e+00 0.0000e+00 1.0000e+00
       15  1    3    3    0    0 +4.8415282640e+01 -2.7703591170e+01 +1.5418593722e+01 5.7900080468e+01 1.7770000000e+00 0.0000e+00 1.0000e+00
       22  1    3    3    0    0 -7.9165589610e-04 -2.7971391462e-04 -1.2602398786e-04 8.4902354342e-04 0.0000000000e+00 0.0000e+00 -1.0000e+00
<mgrwt>
<rscale>  2 0.12500000E+03</rscale>
<asrwt>0</asrwt>
<pdfrwt beam="1">  1       21 0.19609093E-01 0.12500000E+03</pdfrwt>
<pdfrwt beam="2">  1       21 0.43080893E-02 0.12500000E+03</pdfrwt>
<totfact> 0.82549799E+06</totfact>
</mgrwt>
</event>
<event>
 6      0 +4.1053447e-01 1.25000000e+02 7.54677100e-03 1.12640300e-01
       21 -1    0    0  502  501 +0.0000000000e+00 +0.0000000000e+00 +4.0665265631e+02 4.0665265631e+02 0.0000000000e+00 0.0000e+00 -1.0000e+00
       21 -1    0    0  501  502 -0.0000000000e+00 -0.0000000000e+00 -9.6058637252e+00 9.6058637252e+00 0.0000000000e+00 0.0000e+00 -1.0000e+00
       25  2    1    2    0    0 +0.0000000000e+00 +0.0000000000e+00 +3.9704679258e+02 4.1625852003e+02 1.2500000000e+02 0.0000e+00 0.0000e+00
      -15  1    3    3    0    0 -6.1220936089e+00 +4.5424349789e+01 +3.3977731590e+02 3.4285949558e+02 1.7770000000e+00 0.0000e+00 1.0000e+00
       15  1    3    3    0    0 +6.1212246348e+00 -4.5435386614e+01 +5.7191752521e+01 7.3320515773e+01 1.7770000000e+00 0.0000e+00 1.0000e+00
       22  1    3    3    0    0 +8.6897415975e-04 +1.1036825801e-02 +7.7724169199e-02 7.8508681798e-02 0.0000000000e+00 0.0000e+00 1.0000e+00
<mgrwt>
<rscale>  2 0.12500000E+03</rscale>
<asrwt>0</asrwt>
<pdfrwt beam="1">  1       21 0.59801850E-01 0.12500000E+03</pdfrwt>
<pdfrwt beam="2">  1       21 0.14126273E-02 0.12500000E+03</pdfrwt>
<totfact> 0.52180302E+06</totfact>
</mgrwt>
</event>
<event>
 6      0 +4.1053447e-01 1.25000000e+02 7.54677100e-03 1.12640300e-01
       21 -1    0    0  502  501 +0.0000000000e+00 +0.0000000000e+00 +7.4611204667e+01 7.4611204667e+01 0.0000000000e+00 0.0000e+00 -1.0000e+00
       21 -1    0    0  501  502 -0.0000000000e+00 -0.0000000000e+00 -5.2354737032e+01 5.2354737032e+01 0.0000000000e+00 0.0000e+00 -1.0000e+00
       25  2    1    2    0    0 +0.0000000000e+00 +0.0000000000e+00 +2.2256467635e+01 1.2696594170e+02 1.2500000000e+02 0.0000e+00 0.0000e+00
      -15  1    3    3    0    0 -6.0769827885e+01 +1.1439430714e+01 +1.9423298062e+01 6.4840225115e+01 1.7770000000e+00 0.0000e+00 -1.0000e+00
       15  1    3    3    0    0 +5.7856522559e+01 -1.0385868686e+01 +3.6517267158e+00 5.8921441836e+01 1.7770000000e+00 0.0000e+00 -1.0000e+00
       22  1    3    3    0    0 +2.9133053263e+00 -1.0535620281e+00 -8.1855714297e-01 3.2042747491e+00 0.0000000000e+00 0.0000e+00 -1.0000e+00
<mgrwt>
<rscale>  2 0.12500000E+03</rscale>
<asrwt>0</asrwt>
<pdfrwt beam="1">  1       21 0.10972236E-01 0.12500000E+03</pdfrwt>
<pdfrwt beam="2">  1       21 0.76992260E-02 0.12500000E+03</pdfrwt>
<totfact> 0.88639466E+06</totfact>
</mgrwt>
</event>
<event>
 6      0 +4.1053447e-01 1.25000000e+02 7.54677100e-03 1.12640300e-01
       21 -1    0    0  502  501 +0.0000000000e+00 +0.0000000000e+00 +2.2466172746e+02 2.2466172746e+02 0.0000000000e+00 0.0000e+00 -1.0000e+00
       21 -1    0    0  501  502 -0.0000000000e+00 -0.0000000000e+00 -1.7387251688e+01 1.7387251688e+01 0.0000000000e+00 0.0000e+00 -1.0000e+00
       25  2    1    2    0    0 +0.0000000000e+00 +0.0000000000e+00 +2.0727447577e+02 2.4204897915e+02 1.2500000000e+02 0.0000e+00 0.0000e+00
      -15  1    3    3    0    0 +6.0783552392e+01 +4.5108974066e+00 +7.7079439753e+01 9.8282176403e+01 1.7770000000e+00 0.0000e+00 1.0000e+00
       15  1    3    3    0    0 -6.0783548744e+01 -4.5108968224e+00 +1.3019502823e+02 1.4376679412e+02 1.7770000000e+00 0.0000e+00 1.0000e+00
       22  1    3    3    0    0 -3.6482966892e-06 -5.8420153180e-07 +7.7800630106e-06 8.6128241948e-06 0.0000000000e+00 0.0000e+00 -1.0000e+00
<mgrwt>
<rscale>  2 0.12500000E+03</rscale>
<asrwt>0</asrwt>
<pdfrwt beam="1">  1       21 0.33038488E-01 0.12500000E+03</pdfrwt>
<pdfrwt beam="2">  1       21 0.25569489E-02 0.12500000E+03</pdfrwt>
<totfact> 0.71036585E+06</totfact>
</mgrwt>
</event>
<event>
 6      0 +4.1053447e-01 1.25000000e+02 7.54677100e-03 1.12640300e-01
       21 -1    0    0  502  501 +0.0000000000e+00 +0.0000000000e+00 +3.4138901301e+01 3.4138901301e+01 0.0000000000e+00 0.0000e+00 -1.0000e+00
       21 -1    0    0  501  502 -0.0000000000e+00 -0.0000000000e+00 -1.1442225295e+02 1.1442225295e+02 0.0000000000e+00 0.0000e+00 -1.0000e+00
       25  2    1    2    0    0 +0.0000000000e+00 +0.0000000000e+00 -8.0283351645e+01 1.4856115425e+02 1.2500000000e+02 0.0000e+00 0.0000e+00
      -15  1    3    3    0    0 -1.2044686873e+01 -4.9315735252e+01 -8.3418302804e+01 9.7667226832e+01 1.7770000000e+00 0.0000e+00 -1.0000e+00
       15  1    3    3    0    0 +1.2044842634e+01 +4.9316039518e+01 +3.1353529292e+00 5.0893399914e+01 1.7770000000e+00 0.0000e+00 -1.0000e+00
       22  1    3    3    0    0 -1.5576105624e-04 -3.0426647017e-04 -4.0176723328e-04 5.2750023815e-04 0.0000000000e+00 0.0000e+00 1.0000e+00
<mgrwt>
<rscale>  2 0.12500000E+03</rscale>
<asrwt>0</asrwt>
<pdfrwt beam="1">  1       21 0.50204267E-02 0.12500000E+03</pdfrwt>
<pdfrwt beam="2">  1       21 0.16826802E-01 0.12500000E+03</pdfrwt>
<totfact> 0.84867560E+06</totfact>
</mgrwt>
</event>
<event>
 6      0 +4.1053447e-01 1.25000000e+02 7.54677100e-03 1.12640300e-01
       21 -1    0    0  502  501 +0.0000000000e+00 +0.0000000000e+00 +3.5849489387e+01 3.5849489387e+01 0.0000000000e+00 0.0000e+00 1.0000e+00
       21 -1    0    0  501  502 -0.0000000000e+00 -0.0000000000e+00 -1.0896250035e+02 1.0896250035e+02 0.0000000000e+00 0.0000e+00 1.0000e+00
       25  2    1    2    0    0 +0.0000000000e+00 +0.0000000000e+00 -7.3113010965e+01 1.4481198974e+02 1.2500000000e+02 0.0000e+00 0.0000e+00
      -15  1    3    3    0    0 -1.3087643240e+01 +2.0634330171e+00 +2.4843000350e+01 2.8211284210e+01 1.7770000000e+00 0.0000e+00 -1.0000e+00
       15  1    3    3    0    0 +2.2913200980e+01 +1.1689936658e+01 -9.6213499648e+01 9.9608557071e+01 1.7770000000e+00 0.0000e+00 -1.0000e+00
       22  1    3    3    0    0 -9.8255577401e+00 -1.3753369675e+01 -1.7425116659e+00 1.6992148458e+01 0.0000000000e+00 0.0000e+00 1.0000e+00
<mgrwt>
<rscale>  2 0.12500000E+03</rscale>
<asrwt>0</asrwt>
<pdfrwt beam="1">  1       21 0.52719837E-02 0.12500000E+03</pdfrwt>
<pdfrwt beam="2">  1       21 0.16023897E-01 0.12500000E+03</pdfrwt>
<totfact> 0.85506608E+06</totfact>
</mgrwt>
</event>
<event>
 6      0 +4.1053447e-01 1.25000000e+02 7.54677100e-03 1.12640300e-01
       21 -1    0    0  502  501 +0.0000000000e+00 +0.0000000000e+00 +5.5413778902e+02 5.5413778902e+02 0.0000000000e+00 0.0000e+00 1.0000e+00
       21 -1    0    0  501  502 -0.0000000000e+00 -0.0000000000e+00 -7.0492395165e+00 7.0492395165e+00 0.0000000000e+00 0.0000e+00 1.0000e+00
       25  2    1    2    0    0 +0.0000000000e+00 +0.0000000000e+00 +5.4708854951e+02 5.6118702854e+02 1.2500000000e+02 0.0000e+00 0.0000e+00
      -15  1    3    3    0    0 +4.2990823442e+01 +3.9199071588e+01 +1.8309274663e+02 1.9212206982e+02 1.7770000000e+00 0.0000e+00 -1.0000e+00
       15  1    3    3    0    0 -4.3847397780e+01 -4.0009902107e+01 +3.6087971162e+02 3.6573311382e+02 1.7770000000e+00 0.0000e+00 -1.0000e+00
       22  1    3    3    0    0 +8.5657433846e-01 +8.1083051944e-01 +3.1160913184e+00 3.3318449593e+00 0.0000000000e+00 0.0000e+00 1.0000e+00
<mgrwt>
<rscale>  2 0.12500000E+03</rscale>
<asrwt>0</asrwt>
<pdfrwt beam="1">  1       21 0.81490822E-01 0.12500000E+03</pdfrwt>
<pdfrwt beam="2">  1       21 0.10366532E-02 0.12500000E+03</pdfrwt>
<totfact> 0.41046241E+06</totfact>
</mgrwt>
</event>
<event>
 6      0 +4.1053447e-01 1.25000000e+02 7.54677100e-03 1.12640300e-01
       21 -1    0    0  502  501 +0.0000000000e+00 +0.0000000000e+00 +1.8645627269e+02 1.8645627269e+02 0.0000000000e+00 0.0000e+00 1.0000e+00
       21 -1    0    0  501  502 -0.0000000000e+00 -0.0000000000e+00 -2.0949952199e+01 2.0949952199e+01 0.0000000000e+00 0.0000e+00 1.0000e+00
       25  2    1    2    0    0 +0.0000000000e+00 +0.0000000000e+00 +1.6550632049e+02 2.0740622488e+02 1.2500000000e+02 0.0000e+00 0.0000e+00
      -15  1    3    3    0    0 +5.3855515238e+01 -7.2290440204e-01 +3.0230097583e+01 6.1789607874e+01 1.7770000000e+00 0.0000e+00 1.0000e+00
       15  1    3    3    0    0 -5.1879270540e+01 +7.0862005293e-01 +1.3002043328e+02 1.4000154161e+02 1.7770000000e+00 0.0000e+00 1.0000e+00
       22  1    3    3    0    0 -1.9762446979e+00 +1.4284349104e-02 +5.2557896484e+00 5.6150754204e+00 0.0000000000e+00 0.0000e+00 -1.0000e+00
<mgrwt>
<rscale>  2 0.12500000E+03</rscale>
<asrwt>0</asrwt>
<pdfrwt beam="1">  1       21 0.27420039E-01 0.12500000E+03</pdfrwt>
<pdfrwt beam="2">  1       21 0.30808754E-02 0.12500000E+03</pdfrwt>
<totfact> 0.75751897E+06</totfact>
</mgrwt>
</event>
<event>
 6      0 +4.1053447e-01 1.25000000e+02 7.54677100e-03 1.12640300e-01
       21 -1    0    0  502  501 +0.0000000000e+00 +0.0000000000e+00 +1.2582320272e+02 1.2582320272e+02 0.0000000000e+00 0.0000e+00 1.0000e+00
       21 -1    0    0  501  502 -0.0000000000e+00 -0.0000000000e+00 -3.1045545778e+01 3.1045545778e+01 0.0000000000e+00 0.0000e+00 1.0000e+00
       25  2    1    2    0    0 +0.0000000000e+00 +0.0000000000e+00 +9.4777656941e+01 1.5686874850e+02 1.2500000000e+02 0.0000e+00 0.0000e+00
      -15  1    3    3    0    0 +1.5666543328e+01 -4.6551909411e+01 +9.5839836146e+01 1.0770771918e+02 1.7770000000e+00 0.0000e+00 -1.0000e+00
       15  1    3    3    0    0 -1.5666543328e+01 +4.6551909411e+01 -1.0621792072e+00 4.9161029315e+01 1.7770000000e+00 0.0000e+00 -1.0000e+00
       22  1    3    3    0    0 +3.5565269623e-10 -1.9021786707e-10 +2.5783405991e-10 4.7869622908e-10 0.0000000000e+00 0.0000e+00 -1.0000e+00
<mgrwt>
<rscale>  2 0.12500000E+03</rscale>
<asrwt>0</asrwt>
<pdfrwt beam="1">  1       21 0.18503412E-01 0.12500000E+03</pdfrwt>
<pdfrwt beam="2">  1       21 0.45655215E-02 0.12500000E+03</pdfrwt>
<totfact> 0.83489162E+06</totfact>
</mgrwt>
</event>
<event>
 6      0 +4.1053447e-01 1.25000000e+02 7.54677100e-03 1.12640300e-01
       21 -1    0    0  502  501 +0.0000000000e+00 +0.0000000000e+00 +5.0460082333e+00 5.0460082333e+00 0.0000000000e+00 0.0000e+00 -1.0000e+00
       21 -1    0    0  501  502 -0.0000000000e+00 -0.0000000000e+00 -7.7412675910e+02 7.7412675910e+02 0.0000000000e+00 0.0000e+00 -1.0000e+00
       25  2    1    2    0    0 +0.0000000000e+00 +0.0000000000e+00 -7.6908075087e+02 7.7917276733e+02 1.2500000000e+02 0.0000e+00 0.0000e+00
      -15  1    3    3    0    0 -5.9782898725e+01 +9.9084946867e+00 -4.7926296654e+02 4.8308210697e+02 1.7770000000e+00 0.0000e+00 1.0000e+00
       15  1    3    3    0    0 +5.9782867628e+01 -9.9084940335e+00 -2.8981765350e+02 2.9609052589e+02 1.7770000000e+00 0.0000e+00 1.0000e+00
       22  1    3    3    0    0 +3.1096894069e-05 -6.5320208304e-07 -1.3107838980e-04 1.3471817905e-04 0.0000000000e+00 0.0000e+00 1.0000e+00
<mgrwt>
<rscale>  2 0.12500000E+03</rscale>
<asrwt>0</asrwt>
<pdfrwt beam="1">  1       21 0.74206061E-03 0.12500000E+03</pdfrwt>
<pdfrwt beam="2">  1       21 0.11384208E+00 0.12500000E+03</pdfrwt>
<totfact> 0.29178117E+06</totfact>
</mgrwt>
</event>
<event>
 6      0 +4.1053447e-01 1.25000000e+02 7.54677100e-03 1.12640300e-01
       21 -1    0    0  502  501 +0.0000000000e+00 +0.0000000000e+00 +3.6660276136e+01 3.6660276136e+01 0.0000000000e+00 0.0000e+00 -1.0000e+00
       21 -1    0    0  501  502 -0.0000000000e+00 -0.0000000000e+00 -1.0655266167e+02 1.0655266167e+02 0.0000000000e+00 0.0000e+00 -1.0000e+00
       25  2    1    2    0    0 +0.0000000000e+00 +0.0000000000e+00 -6.9892385537e+01 1.4321293781e+02 1.2500000000e+02 0.0000e+00 0.0000e+00
      -15  1    3    3    0    0 -2.5583702455e+01 +3.4345965328e+01 +1.7166575524e+01 4.6173804368e+01 1.7770000000e+00 0.0000e+00 -1.0000e+00
       15  1    3    3    0    0 +2.5583705756e+01 -3.4345968151e+01 -8.7058963753e+01 9.7039128330e+01 1.7770000000e+00 0.0000e+00 -1.0000e+00
       22  1    3    3    0    0 -3.3016570116e-06 +2.8230252412e-06 +2.6922067753e-06 5.1106152130e-06 0.0000000000e+00 0.0000e+00 -1.0000e+00
<mgrwt>
<rscale>  2 0.12500000E+03</rscale>
<asrwt>0</asrwt>
<pdfrwt beam="1">  1       21 0.53912169E-02 0.12500000E+03</pdfrwt>
<pdfrwt beam="2">  1       21 0.15669510E-01 0.12500000E+03</pdfrwt>
<totfact> 0.85783172E+06</totfact>
</mgrwt>
</event>
<event>
 6      0 +4.1053447e-01 1.25000000e+02 7.54677100e-03 1.12640300e-01
       21 -1    0    0  502  501 +0.0000000000e+00 +0.0000000000e+00 +7.8139553485e+01 7.8139553485e+01 0.0000000000e+00 0.0000e+00 1.0000e+00
       21 -1    0    0  501  502 -0.0000000000e+00 -0.0000000000e+00 -4.9990687504e+01 4.9990687504e+01 0.0000000000e+00 0.0000e+00 1.0000e+00
       25  2    1    2    0    0 +0.0000000000e+00 +0.0000000000e+00 +2.8148865981e+01 1.2813024099e+02 1.2500000000e+02 0.0000e+00 0.0000e+00
      -15  1    3    3    0    0 -1.5957787032e+01 +2.8613900821e+01 +6.8601267032e+01 7.6044052066e+01 1.7770000000e+00 0.0000e+00 1.0000e+00
       15  1    3    3    0    0 +1.5957309395e+01 -2.8613623978e+01 -4.0452107861e+01 5.2085563831e+01 1.7770000000e+00 0.0000e+00 1.0000e+00
       22  1    3    3    0    0 +4.7763696480e-04 -2.7684368803e-04 -2.9319021841e-04 6.2509199476e-04 0.0000000000e+00 0.0000e+00 1.0000e+00
<mgrwt>
<rscale>  2 0.12500000E+03</rscale>
<asrwt>0</asrwt>
<pdfrwt beam="1">  1       21 0.11491111E-01 0.12500000E+03</pdfrwt>
<pdfrwt beam="2">  1       21 0.73515717E-02 0.12500000E+03</pdfrwt>
<totfact> 0.88434670E+06</totfact>
</mgrwt>
</event>
<event>
 6      0 +4.1053447e-01 1.25000000e+02 7.54677100e-03 1.12640300e-01
       21 -1    0    0  502  501 +0.0000000000e+00 +0.0000000000e+00 +3.8501712774e+01 3.8501712774e+01 0.0000000000e+00 0.0000e+00 -1.0000e+00
       21 -1    0    0  501  502 -0.0000000000e+00 -0.0000000000e+00 -1.0145652540e+02 1.0145652540e+02 0.0000000000e+00 0.0000e+00 -1.0000e+00
       25  2    1    2    0    0 +0.0000000000e+00 +0.0000000000e+00 -6.2954812628e+01 1.3995823817e+02 1.2500000000e+02 0.0000e+00 0.0000e+00
      -15  1    3    3    0    0 -4.0165503574e+01 +4.2229996201e+01 -6.2822341368e+00 5.8645242358e+01 1.7770000000e+00 0.0000e+00 -1.0000e+00
       15  1    3    3    0    0 +4.0113418268e+01 -4.2185556347e+01 -5.6624772231e+01 8.1229490019e+01 1.7770000000e+00 0.0000e+00 -1.0000e+00
       22  1    3    3    0    0 +5.2085305725e-02 -4.4439854532e-02 -4.7806263155e-02 8.3505799440e-02 0.0000000000e+00 0.0000e+00 1.0000e+00
<mgrwt>
<rscale>  2 0.12500000E+03</rscale>
<asrwt>0</asrwt>
<pdfrwt beam="1">  1       21 0.56620167E-02 0.12500000E+03</pdfrwt>
<pdfrwt beam="2">  1       21 0.14920077E-01 0.12500000E+03</pdfrwt>
<totfact> 0.86347530E+06</totfact>
</mgrwt>
</event>
<event>
 6      0 +4.1053447e-01 1.25000000e+02 7.54677100e-03 1.12640300e-01
       21 -1    0    0  502  501 +0.0000000000e+00 +0.0000000000e+00 +1.5839124535e+02 1.5839124535e+02 0.0000000000e+00 0.0000e+00 1.0000e+00
       21 -1    0    0  501  502 -0.0000000000e+00 -0.0000000000e+00 -2.4662032244e+01 2.4662032244e+01 0.0000000000e+00 0.0000e+00 1.0000e+00
       25  2    1    2    0    0 +0.0000000000e+00 +0.0000000000e+00 +1.3372921311e+02 1.8305327759e+02 1.2500000000e+02 0.0000e+00 0.0000e+00
      -15  1    3    3    0    0 -2.7919565417e+01 -4.9150175911e+01 +4.3128179137e+01 7.1122707273e+01 1.7770000000e+00 0.0000e+00 1.0000e+00
       15  1    3    3    0    0 +3.1728897452e+01 +5.1904224312e+01 +8.5971741612e+01 1.0533313591e+02 1.7770000000e+00 0.0000e+00 1.0000e+00
       22  1    3    3    0    0 -3.8093320346e+00 -2.7540484004e+00 +4.6292923706e+00 6.5974344252e+00 0.0000000000e+00 0.0000e+00 -1.0000e+00
<mgrwt>
<rscale>  2 0.12500000E+03</rscale>
<asrwt>0</asrwt>
<pdfrwt beam="1">  1       21 0.23292830E-01 0.12500000E+03</pdfrwt>
<pdfrwt beam="2">  1       21 0.36267695E-02 0.12500000E+03</pdfrwt>
<totfact> 0.79341332E+06</totfact>
</mgrwt>
</event>
<event>
 6      0 +4.1053447e-01 1.25000000e+02 7.54677100e-03 1.12640300e-01
       21 -1    0    0  502  501 +0.0000000000e+00 +0.0000000000e+00 +1.0970637539e+02 1.0970637539e+02 0.0000000000e+00 0.0000e+00 1.0000e+00
       21 -1    0    0  501  502 -0.0000000000e+00 -0.0000000000e+00 -3.5606408344e+01 3.5606408344e+01 0.0000000000e+00 0.0000e+00 1.0000e+00
       25  2    1    2    0    0 +0.0000000000e+00 +0.0000000000e+00 +7.4099967043e+01 1.4531278373e+02 1.2500000000e+02 0.0000e+00 0.0000e+00
      -15  1    3    3    0    0 -4.8760313606e+01 -1.3243645903e+01 -5.6641811045e+00 5.0874384678e+01 1.7770000000e+00 0.0000e+00 -1.0000e+00
       15  1    3    3    0    0 +4.8571419074e+01 +1.3209379493e+01 +7.9494068389e+01 9.4107040626e+01 1.7770000000e+00 0.0000e+00 -1.0000e+00
       22  1    3    3    0    0 +1.8889453151e-01 +3.4266410062e-02 +2.7007975979e-01 3.3135842760e-01 0.0000000000e+00 0.0000e+00 -1.0000e+00
<mgrwt>
<rscale>  2 0.12500000E+03</rscale>
<asrwt>0</asrwt>
<pdfrwt beam="1">  1       21 0.16133290E-01 0.12500000E+03</pdfrwt>
<pdfrwt beam="2">  1       21 0.52362365E-02 0.12500000E+03</pdfrwt>
<totfact> 0.85420512E+06</totfact>
</mgrwt>
</event>
<event>
 6      0 +4.1053447e-01 1.25000000e+02 7.54677100e-03 1.12640300e-01
       21 -1    0    0  502  501 +0.0000000000e+00 +0.0000000000e+00 +1.3575646646e+02 1.3575646646e+02 0.0000000000e+00 0.0000e+00 1.0000e+00
       21 -1    0    0  501  502 -0.0000000000e+00 -0.0000000000e+00 -2.8773951635e+01 2.8773951635e+01 0.0000000000e+00 0.0000e+00 1.0000e+00
       25  2    1    2    0    0 +0.0000000000e+00 +0.0000000000e+00 +1.0698251482e+02 1.6453041809e+02 1.2500000000e+02 0.0000e+00 0.0000e+00
      -15  1    3    3    0    0 -2.3906039531e+01 -2.7619746997e+01 -1.3219587066e+01 3.8887843363e+01 1.7770000000e+00 0.0000e+00 -1.0000e+00
       15  1    3    3    0    0 +2.3905965189e+01 +2.7619771385e+01 +1.2020196045e+02 1.2564241309e+02 1.7770000000e+00 0.0000e+00 -1.0000e+00
       22  1    3    3    0    0 +7.4341453283e-05 -2.4388086594e-05 +1.4143733705e-04 1.6163523983e-04 0.0000000000e+00 0.0000e+00 -1.0000e+00
<mgrwt>
<rscale>  2 0.12500000E+03</rscale>
<asrwt>0</asrwt>
<pdfrwt beam="1">  1       21 0.19964186E-01 0.12500000E+03</pdfrwt>
<pdfrwt beam="2">  1       21 0.42314636E-02 0.12500000E+03</pdfrwt>
<totfact> 0.82242393E+06</totfact>
</mgrwt>
</event>
<event>
 6      0 +4.1053447e-01 1.25000000e+02 7.54677100e-03 1.12640300e-01
       21 -1    0    0  502  501 +0.0000000000e+00 +0.0000000000e+00 +7.8284212846e+01 7.8284212846e+01 0.0000000000e+00 0.0000e+00 1.0000e+00
       21 -1    0    0  501  502 -0.0000000000e+00 -0.0000000000e+00 -4.9898311013e+01 4.9898311013e+01 0.0000000000e+00 0.0000e+00 1.0000e+00
       25  2    1    2    0    0 +0.0000000000e+00 +0.0000000000e+00 +2.8385901833e+01 1.2818252386e+02 1.2500000000e+02 0.0000e+00 0.0000e+00
      -15  1    3    3    0    0 -4.1680883175e+01 +1.7990690176e+01 +5.7077424955e+01 7.2951704050e+01 1.7770000000e+00 0.0000e+00 1.0000e+00
       15  1    3    3    0    0 +4.0822019743e+01 -1.9275152213e+01 -2.8958134251e+01 5.3662836834e+01 1.7770000000e+00 0.0000e+00 1.0000e+00
       22  1    3    3    0    0 +8.5886343232e-01 +1.2844620363e+00 +2.6661112983e-01 1.5679829758e+00 0.0000000000e+00 0.0000e+00 -1.0000e+00
<mgrwt>
<rscale>  2 0.12500000E+03</rscale>
<asrwt>0</asrwt>
<pdfrwt beam="1">  1       21 0.11512384E-01 0.12500000E+03</pdfrwt>
<pdfrwt beam="2">  1       21 0.73379869E-02 0.12500000E+03</pdfrwt>
<totfact> 0.88425412E+06</totfact>
</mgrwt>
</event>
<event>
 6      0 +4.1053447e-01 1.25000000e+02 7.54677100e-03 1.12640300e-01
       21 -1    0    0  502  501 +0.0000000000e+00 +0.0000000000e+00 +1.8308347955e+02 1.8308347955e+02 0.0000000000e+00 0.0000e+00 1.0000e+00
       21 -1    0    0  501  502 -0.0000000000e+00 -0.0000000000e+00 -2.1335895569e+01 2.1335895569e+01 0.0000000000e+00 0.0000e+00 1.0000e+00
       25  2    1    2    0    0 +0.0000000000e+00 +0.0000000000e+00 +1.6174758398e+02 2.0441937512e+02 1.2500000000e+02 0.0000e+00 0.0000e+00
      -15  1    3    3    0    0 -3.7570730669e+00 -3.2781867978e+01 +1.6762851520e+02 1.7085445064e+02 1.7770000000e+00 0.0000e+00 -1.0000e+00
       15  1    3    3    0    0 +3.7576031628e+00 +3.2778609433e+01 -5.8768528986e+00 3.3559677394e+01 1.7770000000e+00 0.0000e+00 -1.0000e+00
       22  1    3    3    0    0 -5.3009584739e-04 +3.2585451002e-03 -4.0783255202e-03 5.2470807897e-03 0.0000000000e+00 0.0000e+00 1.0000e+00
<mgrwt>
<rscale>  2 0.12500000E+03</rscale>
<asrwt>0</asrwt>
<pdfrwt beam="1">  1       21 0.26924040E-01 0.12500000E+03</pdfrwt>
<pdfrwt beam="2">  1       21 0.31376318E-02 0.12500000E+03</pdfrwt>
<totfact> 0.76178987E+06</totfact>
</mgrwt>
</event>
<event>
 6      0 +4.1053447e-01 1.25000000e+02 7.54677100e-03 1.12640300e-01
       21 -1    0    0  502  501 +0.0000000000e+00 +0.0000000000e+00 +3.9798169061e+01 3.9798169061e+01 0.0000000000e+00 0.0000e+00 -1.0000e+00
       21 -1    0    0  501  502 -0.0000000000e+00 -0.0000000000e+00 -9.8151500237e+01 9.8151500237e+01 0.0000000000e+00 0.0000e+00 -1.0000e+00
       25  2    1    2    0    0 +0.0000000000e+00 +0.0000000000e+00 -5.8353331176e+01 1.3794966930e+02 1.2500000000e+02 0.0000e+00 0.0000e+00
      -15  1    3    3    0    0 -2.5903314785e+01 -5.5971635602e+01 -4.0173201094e+01 7.3626418654e+01 1.7770000000e+00 0.0000e+00 1.0000e+00
       15  1    3    3    0    0 +2.5903314763e+01 +5.5971635612e+01 -1.8180130107e+01 6.4323250606e+01 1.7770000000e+00 0.0000e+00 1.0000e+00
       22  1    3    3    0    0 +2.1723221581e-08 -1.0375803707e-08 +2.6708388565e-08 3.5956830758e-08 0.0000000000e+00 0.0000e+00 -1.0000e+00
<mgrwt>
<rscale>  2 0.12500000E+03</rscale>
<asrwt>0</asrwt>
<pdfrwt beam="1">  1       21 0.58526720E-02 0.12500000E+03</pdfrwt>
<pdfrwt beam="2">  1       21 0.14434044E-01 0.12500000E+03</pdfrwt>
<totfact> 0.86693995E+06</totfact>
</mgrwt>
</event>
<event>
 6      0 +4.1053447e-01 1.25000000e+02 7.54677100e-03 1.12640300e-01
       21 -1    0    0  502  501 +0.0000000000e+00 +0.0000000000e+00 +4.5116701786e+02 4.5116701786e+02 0.0000000000e+00 0.0000e+00 -1.0000e+00
       21 -1    0    0  501  502 -0.0000000000e+00 -0.0000000000e+00 -8.6581018678e+00 8.6581018678e+00 0.0000000000e+00 0.0000e+00 -1.0000e+00
       25  2    1    2    0    0 +0.0000000000e+00 +0.0000000000e+00 +4.4250891599e+02 4.5982511973e+02 1.2500000000e+02 0.0000e+00 0.0000e+00
      -15  1    3    3    0    0 -6.2247077896e+01 +5.1918761915e+00 +2.1684980063e+02 2.2567376464e+02 1.7770000000e+00 0.0000e+00 -1.0000e+00
       15  1    3    3    0    0 +6.2247110234e+01 -5.1918540019e+00 +2.2565895593e+02 2.3415119091e+02 1.7770000000e+00 0.0000e+00 -1.0000e+00
       22  1    3    3    0    0 -3.2337964680e-05 -2.2189605698e-05 +1.5937482213e-04 1.6412938948e-04 0.0000000000e+00 0.0000e+00 1.0000e+00
<mgrwt>
<rscale>  2 0.12500000E+03</rscale>
<asrwt>0</asrwt>
<pdfrwt beam="1">  1       21 0.66348075E-01 0.12500000E+03</pdfrwt>
<pdfrwt beam="2">  1       21 0.12732506E-02 0.12500000E+03</pdfrwt>
<totfact> 0.48466273E+06</totfact>
</mgrwt>
</event>
<event>
 6      0 +4.1053447e-01 1.25000000e+02 7.54677100e-03 1.12640300e-01
       21 -1    0    0  502  501 +0.0000000000e+00 +0.0000000000e+00 +4.0625214417e+01 4.0625214417e+01 0.0000000000e+00 0.0000e+00 -1.0000e+00
       21 -1    0    0  501  502 -0.0000000000e+00 -0.0000000000e+00 -9.6153338660e+01 9.6153338660e+01 0.0000000000e+00 0.0000e+00 -1.0000e+00
       25  2    1    2    0    0 +0.0000000000e+00 +0.0000000000e+00 -5.5528124242e+01 1.3677855308e+02 1.2500000000e+02 0.0000e+00 0.0000e+00
      -15  1    3    3    0    0 +1.4458620987e+00 +1.5922129060e+01 +3.1993782815e+01 3.5810118385e+01 1.7770000000e+00 0.0000e+00 -1.0000e+00
       15  1    3    3    0    0 +5.5840131487e-01 -2.5082628389e+00 -8.7348697768e+01 8.7404553230e+01 1.7770000000e+00 0.0000e+00 -1.0000e+00
       22  1    3    3    0    0 -2.0042634136e+00 -1.3413866221e+01 -1.7320928642e-01 1.3563881461e+01 0.0000000000e+00 0.0000e+00 -1.0000e+00
<mgrwt>
<rscale>  2 0.12500000E+03</rscale>
<asrwt>0</asrwt>
<pdfrwt beam="1">  1       21 0.59742963E-02 0.12500000E+03</pdfrwt>
<pdfrwt beam="2">  1       21 0.14140197E-01 0.12500000E+03</pdfrwt>
<totfact> 0.86896354E+06</totfact>
</mgrwt>
</event>
<event>
 6      0 +4.1053447e-01 1.25000000e+02 7.54677100e-03 1.12640300e-01
       21 -1    0    0  502  501 +0.0000000000e+00 +0.0000000000e+00 +3.9064792438e+02 3.9064792438e+02 0.0000000000e+00 0.0000e+00 1.0000e+00
       21 -1    0    0  501  502 -0.0000000000e+00 -0.0000000000e+00 -9.9994131704e+00 9.9994131704e+00 0.0000000000e+00 0.0000e+00 1.0000e+00
       25  2    1    2    0    0 +0.0000000000e+00 +0.0000000000e+00 +3.8064851121e+02 4.0064733755e+02 1.2500000000e+02 0.0000e+00 0.0000e+00
      -15  1    3    3    0    0 +2.7419542896e+01 +3.7825892865e+01 +7.2860329427e+01 8.6570288418e+01 1.7770000000e+00 0.0000e+00 -1.0000e+00
       15  1    3    3    0    0 -2.4627977430e+01 -4.6020170352e+01 +2.8401350836e+02 2.8877538678e+02 1.7770000000e+00 0.0000e+00 -1.0000e+00
       22  1    3    3    0    0 -2.7915654657e+00 +8.1942774877e+00 +2.3774673429e+01 2.5301662355e+01 0.0000000000e+00 0.0000e+00 -1.0000e+00
<mgrwt>
<rscale>  2 0.12500000E+03</rscale>
<asrwt>0</asrwt>
<pdfrwt beam="1">  1       21 0.57448214E-01 0.12500000E+03</pdfrwt>
<pdfrwt beam="2">  1       21 0.14705022E-02 0.12500000E+03</pdfrwt>
<totfact> 0.53596167E+06</totfact>
</mgrwt>
</event>
<event>
 6      0 +4.1053447e-01 1.25000000e+02 7.54677100e-03 1.12640300e-01
       21 -1    0    0  502  501 +0.0000000000e+00 +0.0000000000e+00 +8.6383628543e+01 8.6383628543e+01 0.0000000000e+00 0.0000e+00 -1.0000e+00
       21 -1    0    0  501  502 -0.0000000000e+00 -0.0000000000e+00 -4.5219795300e+01 4.5219795300e+01 0.0000000000e+00 0.0000e+00 -1.0000e+00
       25  2    1    2    0    0 +0.0000000000e+00 +0.0000000000e+00 +4.1163833243e+01 1.3160342384e+02 1.2500000000e+02 0.0000e+00 0.0000e+00
      -15  1    3    3    0    0 +1.1590421650e+01 +1.0371382977e+01 +8.4286139854e+01 8.5727560092e+01 1.7770000000e+00 0.0000e+00 -1.0000e+00
       15  1    3    3    0    0 -1.1590386708e+01 -1.0371363834e+01 -4.3122080031e+01 4.5875633697e+01 1.7770000000e+00 0.0000e+00 -1.0000e+00
       22  1    3    3    0    0 -3.4941199684e-05 -1.9142862487e-05 -2.2657899829e-04 2.3005516531e-04 0.0000000000e+00 0.0000e+00 -1.0000e+00
<mgrwt>
<rscale>  2 0.12500000E+03</rscale>
<asrwt>0</asrwt>
<pdfrwt beam="1">  1       21 0.12703475E-01 0.12500000E+03</pdfrwt>
<pdfrwt beam="2">  1       21 0.66499699E-02 0.12500000E+03</pdfrwt>
<totfact> 0.87807325E+06</totfact>
</mgrwt>
</event>
<event>
 6      0 +4.1053447e-01 1.25000000e+02 7.54677100e-03 1.12640300e-01
       21 -1    0    0  502  501 +0.0000000000e+00 +0.0000000000e+00 +1.2330173196e+01 1.2330173196e+01 0.0000000000e+00 0.0000e+00 1.0000e+00
       21 -1    0    0  501  502 -0.0000000000e+00 -0.0000000000e+00 -3.1680414686e+02 3.1680414686e+02 0.0000000000e+00 0.0000e+00 1.0000e+00
       25  2    1    2    0    0 +0.0000000000e+00 +0.0000000000e+00 -3.0447397367e+02 3.2913432006e+02 1.2500000000e+02 0.0000e+00 0.0000e+00
      -15  1    3    3    0    0 +1.4347733103e+01 -5.0417503408e+01 -2.4173480096e+02 2.4735936170e+02 1.7770000000e+00 0.0000e+00 -1.0000e+00
       15  1    3    3    0    0 -1.4347733359e+01 +5.0417504048e+01 -6.2739169710e+01 8.1774955285e+01 1.7770000000e+00 0.0000e+00 -1.0000e+00
       22  1    3    3    0    0 +2.5562609326e-07 -6.4069571176e-07 -3.0106224601e-06 3.0886377728e-06 0.0000000000e+00 0.0000e+00 -1.0000e+00
<mgrwt>
<rscale>  2 0.12500000E+03</rscale>
<asrwt>0</asrwt>
<pdfrwt beam="1">  1       21 0.18132609E-02 0.12500000E+03</pdfrwt>
<pdfrwt beam="2">  1       21 0.46588842E-01 0.12500000E+03</pdfrwt>
<totfact> 0.60716038E+06</totfact>
</mgrwt>
</event>
<event>
 6      0 +4.1053447e-01 1.25000000e+02 7.54677100e-03 1.12640300e-01
       21 -1    0    0  502  501 +0.0000000000e+00 +0.0000000000e+00 +1.4861857306e+01 1.4861857306e+01 0.0000000000e+00 0.0000e+00 1.0000e+00
       21 -1    0    0  501  502 -0.0000000000e+00 -0.0000000000e+00 -2.6283726990e+02 2.6283726990e+02 0.0000000000e+00 0.0000e+00 1.0000e+00
       25  2    1    2    0    0 +0.0000000000e+00 +0.0000000000e+00 -2.4797541259e+02 2.7769912720e+02 1.2500000000e+02 0.0000e+00 0.0000e+00
      -15  1    3    3    0    0 -1.7509892748e+01 -6.7572806094e-01 -2.0810007531e+02 2.0884408544e+02 1.7770000000e+00 0.0000e+00 -1.0000e+00
       15  1    3    3    0    0 +1.9393567997e+01 +1.2195324060e-01 +7.9166367220e+00 2.1022754773e+01 1.7770000000e+00 0.0000e+00 -1.0000e+00
       22  1    3    3    0    0 -1.8836752492e+00 +5.5377482034e-01 -4.7791974018e+01 4.7832286998e+01 0.0000000000e+00 0.0000e+00 -1.0000e+00
<mgrwt>
<rscale>  2 0.12500000E+03</rscale>
<asrwt>0</asrwt>
<pdfrwt beam="1">  1       21 0.21855674E-02 0.12500000E+03</pdfrwt>
<pdfrwt beam="2">  1       21 0.38652537E-01 0.12500000E+03</pdfrwt>
<totfact> 0.66566624E+06</totfact>
</mgrwt>
</event>
<event>
 6      0 +4.1053447e-01 1.25000000e+02 7.54677100e-03 1.12640300e-01
       21 -1    0    0  502  501 +0.0000000000e+00 +0.0000000000e+00 +4.2256332706e+00 4.2256332706e+00 0.0000000000e+00 0.0000e+00 -1.0000e+00
       21 -1    0    0  501  502 -0.0000000000e+00 -0.0000000000e+00 -9.2441765526e+02 9.2441765526e+02 0.0000000000e+00 0.0000e+00 -1.0000e+00
       25  2    1    2    0    0 +0.0000000000e+00 +0.0000000000e+00 -9.2019202199e+02 9.2864328853e+02 1.2500000000e+02 0.0000e+00 0.0000e+00
      -15  1    3    3    0    0 +2.6012679768e+00 -2.3927382036e+01 -3.1787559956e+01 3.9911062415e+01 1.7770000000e+00 0.0000e+00 -1.0000e+00
       15  1    3    3    0    0 -2.6000969523e+00 +2.3926718515e+01 -8.8831758007e+02 8.8864533373e+02 1.7770000000e+00 0.0000e+00 -1.0000e+00
       22  1    3    3    0    0 -1.1710244867e-03 +6.6352011987e-04 -8.6882031148e-02 8.6892455908e-02 0.0000000000e+00 0.0000e+00 1.0000e+00
<mgrwt>
<rscale>  2 0.12500000E+03</rscale>
<asrwt>0</asrwt>
<pdfrwt beam="1">  1       21 0.62141646E-03 0.12500000E+03</pdfrwt>
<pdfrwt beam="2">  1       21 0.13594382E+00 0.12500000E+03</pdfrwt>
<totfact> 0.23444080E+06</totfact>
</mgrwt>
</event>
<event>
 6      0 +4.1053447e-01 1.25000000e+02 7.54677100e-03 1.12640300e-01
       21 -1    0    0  502  501 +0.0000000000e+00 +0.0000000000e+00 +3.7170809022e+01 3.7170809022e+01 0.0000000000e+00 0.0000e+00 1.0000e+00
       21 -1    0    0  501  502 -0.0000000000e+00 -0.0000000000e+00 -1.0508918430e+02 1.0508918430e+02 0.0000000000e+00 0.0000e+00 1.0000e+00
       25  2    1    2    0    0 +0.0000000000e+00 +0.0000000000e+00 -6.7918375279e+01 1.4225999332e+02 1.2500000000e+02 0.0000e+00 0.0000e+00
      -15  1    3    3    0    0 -5.3008863570e+01 +2.0811930027e+01 -6.3197280947e+01 8.5088954021e+01 1.7770000000e+00 0.0000e+00 -1.0000e+00
       15  1    3    3    0    0 +5.3008880117e+01 -2.0811935040e+01 -4.7210690595e+00 5.7171008680e+01 1.7770000000e+00 0.0000e+00 -1.0000e+00
       22  1    3    3    0    0 -1.6547649094e-05 +5.0130777900e-06 -2.5275939861e-05 3.0623990192e-05 0.0000000000e+00 0.0000e+00 -1.0000e+00
<mgrwt>
<rscale>  2 0.12500000E+03</rscale>
<asrwt>0</asrwt>
<pdfrwt beam="1">  1       21 0.54662955E-02 0.12500000E+03</pdfrwt>
<pdfrwt beam="2">  1       21 0.15454292E-01 0.12500000E+03</pdfrwt>
<totfact> 0.85948730E+06</totfact>
</mgrwt>
</event>
<event>
 6      0 +4.1053447e-01 1.25000000e+02 7.54677100e-03 1.12640300e-01
       21 -1    0    0  502  501 +0.0000000000e+00 +0.0000000000e+00 +2.3570748530e+01 2.3570748530e+01 0.0000000000e+00 0.0000e+00 1.0000e+00
       21 -1    0    0  501  502 -0.0000000000e+00 -0.0000000000e+00 -1.6572447816e+02 1.6572447816e+02 0.0000000000e+00 0.0000e+00 1.0000e+00
       25  2    1    2    0    0 +0.0000000000e+00 +0.0000000000e+00 -1.4215372963e+02 1.8929522669e+02 1.2500000000e+02 0.0000e+00 0.0000e+00
      -15  1    3    3    0    0 +5.3555048144e+01 +2.3024400565e+01 -1.0510205288e+02 1.2019927392e+02 1.7770000000e+00 0.0000e+00 -1.0000e+00
       15  1    3    3    0    0 -5.3555048159e+01 -2.3024400521e+01 -3.7051676765e+01 6.9095952724e+01 1.7770000000e+00 0.0000e+00 -1.0000e+00
       22  1    3    3    0    0 +1.5145660506e-08 -4.3753693500e-08 +1.0632588917e-08 4.7506090917e-08 0.0000000000e+00 0.0000e+00 -1.0000e+00
<mgrwt>
<rscale>  2 0.12500000E+03</rscale>
<asrwt>0</asrwt>
<pdfrwt beam="1">  1       21 0.34662866E-02 0.12500000E+03</pdfrwt>
<pdfrwt beam="2">  1       21 0.24371246E-01 0.12500000E+03</pdfrwt>
<totfact> 0.78402838E+06</totfact>
</mgrwt>
</event>
<event>
 6      0 +4.1053447e-01 1.25000000e+02 7.54677100e-03 1.12640300e-01
       21 -1    0    0  502  501 +0.0000000000e+00 +0.0000000000e+00 +1.7271281600e+01 1.7271281600e+01 0.0000000000e+00 0.0000e+00 -1.0000e+00
       21 -1    0    0  501  502 -0.0000000000e+00 -0.0000000000e+00 -2.2617024552e+02 2.2617024552e+02 0.0000000000e+00 0.0000e+00 -1.0000e+00
       25  2    1    2    0    0 +0.0000000000e+00 +0.0000000000e+00 -2.0889896392e+02 2.4344152712e+02 1.2500000000e+02 0.0000e+00 0.0000e+00
      -15  1    3    3    0    0 -2.3787340983e+01 -1.5583660869e+01 +2.8563153207e+00 2.8635717965e+01 1.7770000000e+00 0.0000e+00 -1.0000e+00
       15  1    3    3    0    0 +1.6221600664e+01 +9.0659090076e+00 -1.8944582168e+02 1.9036335812e+02 1.7770000000e+00 0.0000e+00 -1.0000e+00
       22  1    3    3    0    0 +7.5657403190e+00 +6.5177518610e+00 -2.2309457565e+01 2.4442451037e+01 0.0000000000e+00 0.0000e+00 -1.0000e+00
<mgrwt>
<rscale>  2 0.12500000E+03</rscale>
<asrwt>0</asrwt>
<pdfrwt beam="1">  1       21 0.25398945E-02 0.12500000E+03</pdfrwt>
<pdfrwt beam="2">  1       21 0.33260328E-01 0.12500000E+03</pdfrwt>
<totfact> 0.70853923E+06</totfact>
</mgrwt>
</event>
<event>
 6      0 +4.1053447e-01 1.25000000e+02 7.54677100e-03 1.12640300e-01
       21 -1    0    0  502  501 +0.0000000000e+00 +0.0000000000e+00 +3.0878132297e+02 3.0878132297e+02 0.0000000000e+00 0.0000e+00 -1.0000e+00
       21 -1    0    0  501  502 -0.0000000000e+00 -0.0000000000e+00 -1.2650538454e+01 1.2650538454e+01 0.0000000000e+00 0.0000e+00 -1.0000e+00
       25  2    1    2    0    0 +0.0000000000e+00 +0.0000000000e+00 +2.9613078452e+02 3.2143186142e+02 1.2500000000e+02 0.0000e+00 0.0000e+00
      -15  1    3    3    0    0 +8.3999420790e+00 -5.4001313970e+01 +7.0415772794e+01 8.9152900820e+01 1.7770000000e+00 0.0000e+00 -1.0000e+00
       15  1    3    3    0    0 -8.4169489462e+00 +5.4054331608e+01 +2.2564961972e+02 2.3219307571e+02 1.7770000000e+00 0.0000e+00 -1.0000e+00
       22  1    3    3    0    0 +1.7006867190e-02 -5.3017638096e-02 +6.5392043923e-02 8.5884939828e-02 0.0000000000e+00 0.0000e+00 1.0000e+00
<mgrwt>
<rscale>  2 0.12500000E+03</rscale>
<asrwt>0</asrwt>
<pdfrwt beam="1">  1       21 0.45409013E-01 0.12500000E+03</pdfrwt>
<pdfrwt beam="2">  1       21 0.18603735E-02 0.12500000E+03</pdfrwt>
<totfact> 0.61549657E+06</totfact>
</mgrwt>
</event>
<event>
 6      0 +4.1053447e-01 1.25000000e+02 7.54677100e-03 1.12640300e-01
       21 -1    0    0  502  501 +0.0000000000e+00 +0.0000000000e+00 +1.1419735074e+02 1.1419735074e+02 0.0000000000e+00 0.0000e+00 -1.0000e+00
       21 -1    0    0  501  502 -0.0000000000e+00 -0.0000000000e+00 -3.4206135034e+01 3.4206135034e+01 0.0000000000e+00 0.0000e+00 -1.0000e+00
       25  2    1    2    0    0 +0.0000000000e+00 +0.0000000000e+00 +7.9991215707e+01 1.4840348578e+02 1.2500000000e+02 0.0000e+00 0.0000e+00
      -15  1    3    3    0    0 -4.4277373241e+01 -3.9413807115e+01 +6.3416165790e+01 8.6825697722e+01 1.7770000000e+00 0.0000e+00 1.0000e+00
       15  1    3    3    0    0 +4.4277373242e+01 +3.9413807115e+01 +1.6575049914e+01 6.1577788051e+01 1.7770000000e+00 0.0000e+00 1.0000e+00
       22  1    3    3    0    0 -8.3285297417e-10 -6.1150401397e-11 -9.4863834313e-11 8.4046570144e-10 0.0000000000e+00 0.0000e+00 1.0000e+00
<mgrwt>
<rscale>  2 0.12500000E+03</rscale>
<asrwt>0</asrwt>
<pdfrwt beam="1">  1       21 0.16793728E-01 0.12500000E+03</pdfrwt>
<pdfrwt beam="2">  1       21 0.50303140E-02 0.12500000E+03</pdfrwt>
<totfact> 0.84894192E+06</totfact>
</mgrwt>
</event>
<event>
 6      0 +4.1053447e-01 1.25000000e+02 7.54677100e-03 1.12640300e-01
       21 -1    0    0  502  501 +0.0000000000e+00 +0.0000000000e+00 +3.1193136370e+02 3.1193136370e+02 0.0000000000e+00 0.0000e+00 -1.0000e+00
       21 -1    0    0  501  502 -0.0000000000e+00 -0.0000000000e+00 -1.2522786916e+01 1.2522786916e+01 0.0000000000e+00 0.0000e+00 -1.0000e+00
       25  2    1    2    0    0 +0.0000000000e+00 +0.0000000000e+00 +2.9940857678e+02 3.2445415061e+02 1.2500000000e+02 0.0000e+00 0.0000e+00
      -15  1    3    3    0    0 +2.9753135757e+01 -4.4229871813e+01 +7.2603796696e+01 9.0088843214e+01 1.7770000000e+00 0.0000e+00 -1.0000e+00
       15  1    3    3    0    0 -3.1062737933e+01 +4.6127656324e+01 +2.2359082870e+02 2.3040978880e+02 1.7770000000e+00 0.0000e+00 -1.0000e+00
       22  1    3    3    0    0 +1.3096021761e+00 -1.8977845104e+00 +3.2139513934e+00 3.9555186090e+00 0.0000000000e+00 0.0000e+00 -1.0000e+00
<mgrwt>
<rscale>  2 0.12500000E+03</rscale>
<asrwt>0</asrwt>
<pdfrwt beam="1">  1       21 0.45872254E-01 0.12500000E+03</pdfrwt>
<pdfrwt beam="2">  1       21 0.18415865E-02 0.12500000E+03</pdfrwt>
<totfact> 0.61220802E+06</totfact>
</mgrwt>
</event>
<event>
 6      0 +4.1053447e-01 1.25000000e+02 7.54677100e-03 1.12640300e-01
       21 -1    0    0  502  501 +0.0000000000e+00 +0.0000000000e+00 +1.9221879525e+01 1.9221879525e+01 0.0000000000e+00 0.0000e+00 1.0000e+00
       21 -1    0    0  501  502 -0.0000000000e+00 -0.0000000000e+00 -2.0321894094e+02 2.0321894094e+02 0.0000000000e+00 0.0000e+00 1.0000e+00
       25  2    1    2    0    0 +0.0000000000e+00 +0.0000000000e+00 -1.8399706142e+02 2.2244082047e+02 1.2500000000e+02 0.0000e+00 0.0000e+00
      -15  1    3    3    0    0 -2.9019550812e+01 -2.8102555740e+01 -4.0634053864e+01 5.7325143095e+01 1.7770000000e+00 0.0000e+00 1.0000e+00
       15  1    3    3    0    0 +4.5152329924e+01 +3.8825125525e+01 -1.2477815383e+02 1.3827099722e+02 1.7770000000e+00 0.0000e+00 1.0000e+00
       22  1    3    3    0    0 -1.6132779113e+01 -1.0722569785e+01 -1.8584853727e+01 2.6844680157e+01 0.0000000000e+00 0.0000e+00 1.0000e+00
<mgrwt>
<rscale>  2 0.12500000E+03</rscale>
<asrwt>0</asrwt>
<pdfrwt beam="1">  1       21 0.28267470E-02 0.12500000E+03</pdfrwt>
<pdfrwt beam="2">  1       21 0.29885138E-01 0.12500000E+03</pdfrwt>
<totfact> 0.73659390E+06</totfact>
</mgrwt>
</event>
<event>
 6      0 +4.1053447e-01 1.25000000e+02 7.54677100e-03 1.12640300e-01
       21 -1    0    0  502  501 +0.0000000000e+00 +0.0000000000e+00 +5.2727401040e+01 5.2727401040e+01 0.0000000000e+00 0.0000e+00 -1.0000e+00
       21 -1    0    0  501  502 -0.0000000000e+00 -0.0000000000e+00 -7.4083871440e+01 7.4083871440e+01 0.0000000000e+00 0.0000e+00 -1.0000e+00
       25  2    1    2    0    0 +0.0000000000e+00 +0.0000000000e+00 -2.1356470400e+01 1.2681127248e+02 1.2500000000e+02 0.0000e+00 0.0000e+00
      -15  1    3    3    0    0 -3.8561666502e+01 +3.9711528771e+01 -4.0064920828e+01 6.8354687116e+01 1.7770000000e+00 0.0000e+00 1.0000e+00
       15  1    3    3    0    0 +3.8561662204e+01 -3.9711532856e+01 +1.8708453462e+01 5.8456578703e+01 1.7770000000e+00 0.0000e+00 1.0000e+00
       22  1    3    3    0    0 +4.2976714476e-06 +4.0847421244e-06 -3.0340977420e-06 6.6603939225e-06 0.0000000000e+00 0.0000e+00 -1.0000e+00
<mgrwt>
<rscale>  2 0.12500000E+03</rscale>
<asrwt>0</asrwt>
<pdfrwt beam="1">  1       21 0.77540296E-02 0.12500000E+03</pdfrwt>
<pdfrwt beam="2">  1       21 0.10894687E-01 0.12500000E+03</pdfrwt>
<totfact> 0.88666817E+06</totfact>
</mgrwt>
</event>
<event>
 6      0 +4.1053447e-01 1.25000000e+02 7.54677100e-03 1.12640300e-01
       21 -1    0    0  502  501 +0.0000000000e+00 +0.0000000000e+00 +4.4061890233e+01 4.4061890233e+01 0.0000000000e+00 0.0000e+00 -1.0000e+00
       21 -1    0    0  501  502 -0.0000000000e+00 -0.0000000000e+00 -8.8653709120e+01 8.8653709120e+01 0.0000000000e+00 0.0000e+00 -1.0000e+00
       25  2    1    2    0    0 +0.0000000000e+00 +0.0000000000e+00 -4.4591818886e+01 1.3271559935e+02 1.2500000000e+02 0.0000e+00 0.0000e+00
      -15  1    3    3    0    0 +8.2677481314e+00 +5.1642810962e+01 +1.3985827243e+01 5.4167302646e+01 1.7770000000e+00 0.0000e+00 -1.0000e+00
       15  1    3    3    0    0 -8.2677481244e+00 -5.1642813931e+01 -5.8577647482e+01 7.8548293446e+01 1.7770000000e+00 0.0000e+00 -1.0000e+00
       22  1    3    3    0    0 -7.0499909369e-09 +2.9687767514e-06 +1.3515789017e-06 3.2619703600e-06 0.0000000000e+00 0.0000e+00 1.0000e+00
<mgrwt>
<rscale>  2 0.12500000E+03</rscale>
<asrwt>0</asrwt>
<pdfrwt beam="1">  1       21 0.64796899E-02 0.12500000E+03</pdfrwt>
<pdfrwt beam="2">  1       21 0.13037310E-01 0.12500000E+03</pdfrwt>
<totfact> 0.87608572E+06</totfact>
</mgrwt>
</event>
<event>
 6      0 +4.1053447e-01 1.25000000e+02 7.54677100e-03 1.12640300e-01
       21 -1    0    0  502  501 +0.0000000000e+00 +0.0000000000e+00 +1.2870209517e+02 1.2870209517e+02 0.0000000000e+00 0.0000e+00 1.0000e+00
       21 -1    0    0  501  502 -0.0000000000e+00 -0.0000000000e+00 -3.0351098752e+01 3.0351098752e+01 0.0000000000e+00 0.0000e+00 1.0000e+00
       25  2    1    2    0    0 +0.0000000000e+00 +0.0000000000e+00 +9.8350996413e+01 1.5905319392e+02 1.2500000000e+02 0.0000e+00 0.0000e+00
      -15  1    3    3    0    0 +3.3799656275e+01 +5.0036762213e+01 +6.7123577063e+01 9.0304078888e+01 1.7770000000e+00 0.0000e+00 1.0000e+00
       15  1    3    3    0    0 -3.4104378590e+01 -5.0322452111e+01 +3.0886269225e+01 6.8209802677e+01 1.7770000000e+00 0.0000e+00 1.0000e+00
       22  1    3    3    0    0 +3.0472231513e-01 +2.8568989752e-01 +3.4115012188e-01 5.3931235156e-01 0.0000000000e+00 0.0000e+00 -1.0000e+00
<mgrwt>
<rscale>  2 0.12500000E+03</rscale>
<asrwt>0</asrwt>
<pdfrwt beam="1">  1       21 0.18926778E-01 0.12500000E+03</pdfrwt>
<pdfrwt beam="2">  1       21 0.44633969E-02 0.12500000E+03</pdfrwt>
<totfact> 0.83132882E+06</totfact>
</mgrwt>
</event>
<event>
 6      0 +4.1053447e-01 1.25000000e+02 7.54677100e-03 1.12640300e-01
       21 -1    0    0  502  501 +0.0000000000e+00 +0.0000000000e+00 +1.3353234797e+02 1.3353234797e+02 0.0000000000e+00 0.0000e+00 -1.0000e+00
       21 -1    0    0  501  502 -0.0000000000e+00 -0.0000000000e+00 -2.9253211371e+01 2.9253211371e+01 0.0000000000e+00 0.0000e+00 -1.0000e+00
       25  2    1    2    0    0 +0.0000000000e+00 +0.0000000000e+00 +1.0427913660e+02 1.6278555934e+02 1.2500000000e+02 0.0000e+00 0.0000e+00
      -15  1    3    3    0    0 +5.7228383139e+00 -5.8612762737e+01 +7.9297287043e+01 9.8789798539e+01 1.7770000000e+00 0.0000e+00 -1.0000e+00
       15  1    3    3    0    0 -5.7228383173e+00 +5.8612762829e+01 +2.4981849338e+01 6.3995760564e+01 1.7770000000e+00 0.0000e+00 -1.0000e+00
       22  1    3    3    0    0 +3.3736611309e-09 -9.2478864495e-08 +2.1983439471e-07 2.3851809798e-07 0.0000000000e+00 0.0000e+00 1.0000e+00
<mgrwt>
<rscale>  2 0.12500000E+03</rscale>
<asrwt>0</asrwt>
<pdfrwt beam="1">  1       21 0.19637110E-01 0.12500000E+03</pdfrwt>
<pdfrwt beam="2">  1       21 0.43019429E-02 0.12500000E+03</pdfrwt>
<totfact> 0.82525639E+06</totfact>
</mgrwt>
</event>
<event>
 6      0 +4.1053447e-01 1.25000000e+02 7.54677100e-03 1.12640300e-01
       21 -1    0    0  502  501 +0.0000000000e+00 +0.0000000000e+00 +1.0407334783e+02 1.0407334783e+02 0.0000000000e+00 0.0000e+00 1.0000e+00
       21 -1    0    0  501  502 -0.0000000000e+00 -0.0000000000e+00 -3.7533624905e+01 3.7533624905e+01 0.0000000000e+00 0.0000e+00 1.0000e+00
       25  2    1    2    0    0 +0.0000000000e+00 +0.0000000000e+00 +6.6539722923e+01 1.4160697273e+02 1.2500000000e+02 0.0000e+00 0.0000e+00
      -15  1    3    3    0    0 -4.8525475332e+01 +2.8636747924e+01 +2.7066878445e+00 5.6438187213e+01 1.7770000000e+00 0.0000e+00 -1.0000e+00
       15  1    3    3    0    0 +4.7916479286e+01 -2.8388473729e+01 +6.2998589938e+01 8.4106328483e+01 1.7770000000e+00 0.0000e+00 -1.0000e+00
       22  1    3    3    0    0 +6.0899604585e-01 -2.4827419553e-01 +8.3444514315e-01 1.0624570377e+00 0.0000000000e+00 0.0000e+00 -1.0000e+00
<mgrwt>
<rscale>  2 0.12500000E+03</rscale>
<asrwt>0</asrwt>
<pdfrwt beam="1">  1       21 0.15304904E-01 0.12500000E+03</pdfrwt>
<pdfrwt beam="2">  1       21 0.55196507E-02 0.12500000E+03</pdfrwt>
<totfact> 0.86062038E+06</totfact>
</mgrwt>
</event>
<event>
 6      0 +4.1053447e-01 1.25000000e+02 7.54677100e-03 1.12640300e-01
       21 -1    0    0  502  501 +0.0000000000e+00 +0.0000000000e+00 +7.2569688831e+00 7.2569688831e+00 0.0000000000e+00 0.0000e+00 -1.0000e+00
       21 -1    0    0  501  502 -0.0000000000e+00 -0.0000000000e+00 -5.3827569925e+02 5.3827569925e+02 0.0000000000e+00 0.0000e+00 -1.0000e+00
       25  2    1    2    0    0 +0.0000000000e+00 +0.0000000000e+00 -5.3101873037e+02 5.4553266813e+02 1.2500000000e+02 0.0000e+00 0.0000e+00
      -15  1    3    3    0    0 +5.3479042862e+01 +3.2233192816e+01 -2.5666705325e+02 2.6415927146e+02 1.7770000000e+00 0.0000e+00 -1.0000e+00
       15  1    3    3    0    0 -5.3479045104e+01 -3.2233197214e+01 -2.7435165234e+02 2.8137337141e+02 1.7770000000e+00 0.0000e+00 -1.0000e+00
       22  1    3    3    0    0 +2.2420123397e-06 +4.3974708025e-06 -2.4897137542e-05 2.5381722294e-05 0.0000000000e+00 0.0000e+00 -1.0000e+00
<mgrwt>
<rscale>  2 0.12500000E+03</rscale>
<asrwt>0</asrwt>
<pdfrwt beam="1">  1       21 0.10672010E-02 0.12500000E+03</pdfrwt>
<pdfrwt beam="2">  1       21 0.79158212E-01 0.12500000E+03</pdfrwt>
<totfact> 0.42097175E+06</totfact>
</mgrwt>
</event>
<event>
 6      0 +4.1053447e-01 1.25000000e+02 7.54677100e-03 1.12640300e-01
       21 -1    0    0  502  501 +0.0000000000e+00 +0.0000000000e+00 +8.4375077489e+02 8.4375077489e+02 0.0000000000e+00 0.0000e+00 -1.0000e+00
       21 -1    0    0  501  502 -0.0000000000e+00 -0.0000000000e+00 -4.6296253778e+00 4.6296253778e+00 0.0000000000e+00 0.0000e+00 -1.0000e+00
       25  2    1    2    0    0 +0.0000000000e+00 +0.0000000000e+00 +8.3912114952e+02 8.4838040027e+02 1.2500000000e+02 0.0000e+00 0.0000e+00
      -15  1    3    3    0    0 -6.1600963135e+01 -5.1904052596e-01 +4.8913628898e+02 4.9300346346e+02 1.7770000000e+00 0.0000e+00 1.0000e+00
       15  1    3    3    0    0 +6.1620788906e+01 +5.2927565981e-01 +3.4983027270e+02 3.5522074712e+02 1.7770000000e+00 0.0000e+00 1.0000e+00
       22  1    3    3    0    0 -1.9825771486e-02 -1.0235133857e-02 +1.5458809079e-01 1.5618993884e-01 0.0000000000e+00 0.0000e+00 -1.0000e+00
<mgrwt>
<rscale>  2 0.12500000E+03</rscale>
<asrwt>0</asrwt>
<pdfrwt beam="1">  1       21 0.12408089E+00 0.12500000E+03</pdfrwt>
<pdfrwt beam="2">  1       21 0.68082785E-03 0.12500000E+03</pdfrwt>
<totfact> 0.26335832E+06</totfact>
</mgrwt>
</event>
<event>
 6      0 +4.1053447e-01 1.25000000e+02 7.54677100e-03 1.12640300e-01
       21 -1    0    0  502  501 +0.0000000000e+00 +0.0000000000e+00 +5.5860628454e+00 5.5860628454e+00 0.0000000000e+00 0.0000e+00 1.0000e+00
       21 -1    0    0  501  502 -0.0000000000e+00 -0.0000000000e+00 -6.9928500773e+02 6.9928500773e+02 0.0000000000e+00 0.0000e+00 1.0000e+00
       25  2    1    2    0    0 +0.0000000000e+00 +0.0000000000e+00 -6.9369894488e+02 7.0487107057e+02 1.2500000000e+02 0.0000e+00 0.0000e+00
      -15  1    3    3    0    0 -4.7090686452e+01 +3.1745653748e+01 -4.9364964307e+02 4.9690889217e+02 1.7770000000e+00 0.0000e+00 -1.0000e+00
       15  1    3    3    0    0 +4.7090801782e+01 -3.1745623582e+01 -2.0004932238e+02 2.0796205746e+02 1.7770000000e+00 0.0000e+00 -1.0000e+00
       22  1    3    3    0    0 -1.1533046469e-04 -3.0165975611e-05 +2.0546266760e-05 1.2096797610e-04 0.0000000000e+00 0.0000e+00 1.0000e+00
<mgrwt>
<rscale>  2 0.12500000E+03</rscale>
<asrwt>0</asrwt>
<pdfrwt beam="1">  1       21 0.82148029E-03 0.12500000E+03</pdfrwt>
<pdfrwt beam="2">  1       21 0.10283597E+00 0.12500000E+03</pdfrwt>
<totfact> 0.32665555E+06</totfact>
</mgrwt>
</event>
<event>
 6      0 +4.1053447e-01 1.25000000e+02 7.54677100e-03 1.12640300e-01
       21 -1    0    0  502  501 +0.0000000000e+00 +0.0000000000e+00 +5.3070554957e+02 5.3070554957e+02 0.0000000000e+00 0.0000e+00 1.0000e+00
       21 -1    0    0  501  502 -0.0000000000e+00 -0.0000000000e+00 -7.3604845534e+00 7.3604845534e+00 0.0000000000e+00 0.0000e+00 1.0000e+00
       25  2    1    2    0    0 +0.0000000000e+00 +0.0000000000e+00 +5.2334506502e+02 5.3806603412e+02 1.2500000000e+02 0.0000e+00 0.0000e+00
      -15  1    3    3    0    0 +3.1252072185e+01 +3.6825332521e+01 +9.1126264685e+01 1.0315013803e+02 1.7770000000e+00 0.0000e+00 1.0000e+00
       15  1    3    3    0    0 -3.1259620131e+01 -3.6825783089e+01 +4.3220894454e+02 4.3490347391e+02 1.7770000000e+00 0.0000e+00 1.0000e+00
       22  1    3    3    0    0 +7.5479465247e-03 +4.5056819446e-04 +9.8559106533e-03 1.2422297825e-02 0.0000000000e+00 0.0000e+00 -1.0000e+00
<mgrwt>
<rscale>  2 0.12500000E+03</rscale>
<asrwt>0</asrwt>
<pdfrwt beam="1">  1       21 0.78044907E-01 0.12500000E+03</pdfrwt>
<pdfrwt beam="2">  1       21 0.10824246E-02 0.12500000E+03</pdfrwt>
<totfact> 0.42607612E+06</totfact>
</mgrwt>
</event>
<event>
 6      0 +4.1053447e-01 1.25000000e+02 7.54677100e-03 1.12640300e-01
       21 -1    0    0  502  501 +0.0000000000e+00 +0.0000000000e+00 +5.6333334452e+01 5.6333334452e+01 0.0000000000e+00 0.0000e+00 -1.0000e+00
       21 -1    0    0  501  502 -0.0000000000e+00 -0.0000000000e+00 -6.9341714599e+01 6.9341714599e+01 0.0000000000e+00 0.0000e+00 -1.0000e+00
       25  2    1    2    0    0 +0.0000000000e+00 +0.0000000000e+00 -1.3008380146e+01 1.2567504905e+02 1.2500000000e+02 0.0000e+00 0.0000e+00
      -15  1    3    3    0    0 -2.1443094976e+01 +4.4955521955e+01 +3.1412696254e+01 5.8912821112e+01 1.7770000000e+00 0.0000e+00 -1.0000e+00
       15  1    3    3    0    0 +2.1443095106e+01 -4.4955522077e+01 -4.4421076448e+01 6.6762227754e+01 1.7770000000e+00 0.0000e+00 -1.0000e+00
       22  1    3    3    0    0 -1.2969251443e-07 +1.2205938454e-07 +4.8793979644e-08 1.8466048333e-07 0.0000000000e+00 0.0000e+00 1.0000e+00
<mgrwt>
<rscale>  2 0.12500000E+03</rscale>
<asrwt>0</asrwt>
<pdfrwt beam="1">  1       21 0.82843139E-02 0.12500000E+03</pdfrwt>
<pdfrwt beam="2">  1       21 0.10197311E-01 0.12500000E+03</pdfrwt>
<totfact> 0.88870998E+06</totfact>
</mgrwt>
</event>
<event>
 6      0 +4.1053447e-01 1.25000000e+02 7.54677100e-03 1.12640300e-01
       21 -1    0    0  502  501 +0.0000000000e+00 +0.0000000000e+00 +1.4565575982e+01 1.4565575982e+01 0.0000000000e+00 0.0000e+00 -1.0000e+00
       21 -1    0    0  501  502 -0.0000000000e+00 -0.0000000000e+00 -2.6818369591e+02 2.6818369591e+02 0.0000000000e+00 0.0000e+00 -1.0000e+00
       25  2    1    2    0    0 +0.0000000000e+00 +0.0000000000e+00 -2.5361811993e+02 2.8274927189e+02 1.2500000000e+02 0.0000e+00 0.0000e+00
      -15  1    3    3    0    0 -3.1504785619e+01 +2.8575745179e+01 -2.3031766448e+02 2.3421893397e+02 1.7770000000e+00 0.0000e+00 1.0000e+00
       15  1    3    3    0    0 +3.1504785692e+01 -2.8575745208e+01 -2.3300455281e+01 4.8530337738e+01 1.7770000000e+00 0.0000e+00 1.0000e+00
       22  1    3    3    0    0 -7.3051574653e-08 +2.9477122528e-08 -1.9398486036e-07 2.0936943273e-07 0.0000000000e+00 0.0000e+00 -1.0000e+00
<mgrwt>
<rscale>  2 0.12500000E+03</rscale>
<asrwt>0</asrwt>
<pdfrwt beam="1">  1       21 0.21419965E-02 0.12500000E+03</pdfrwt>
<pdfrwt beam="2">  1       21 0.39438778E-01 0.12500000E+03</pdfrwt>
<totfact> 0.65964262E+06</totfact>
</mgrwt>
</event>
<event>
 6      0 +4.1053447e-01 1.25000000e+02 7.54677100e-03 1.12640300e-01
       21 -1    0    0  502  501 +0.0000000000e+00 +0.0000000000e+00 +2.3791887122e+01 2.3791887122e+01 0.0000000000e+00 0.0000e+00 1.0000e+00
       21 -1    0    0  501  502 -0.0000000000e+00 -0.0000000000e+00 -1.6418411788e+02 1.6418411788e+02 0.0000000000e+00 0.0000e+00 1.0000e+00
       25  2    1    2    0    0 +0.0000000000e+00 +0.0000000000e+00 -1.4039223076e+02 1.8797600501e+02 1.2500000000e+02 0.0000e+00 0.0000e+00
      -15  1    3    3    0    0 -5.0371657706e+01 -1.6078890221e+01 -2.0172631635e+01 5.6620909626e+01 1.7770000000e+00 0.0000e+00 -1.0000e+00
       15  1    3    3    0    0 +5.0379584880e+01 +1.6082247791e+01 -1.2021542734e+02 1.3134552892e+02 1.7770000000e+00 0.0000e+00 -1.0000e+00
       22  1    3    3    0    0 -7.9271735739e-03 -3.3575706097e-03 -4.1717748335e-03 9.5664552751e-03 0.0000000000e+00 0.0000e+00 -1.0000e+00
<mgrwt>
<rscale>  2 0.12500000E+03</rscale>
<asrwt>0</asrwt>
<pdfrwt beam="1">  1       21 0.34988068E-02 0.12500000E+03</pdfrwt>
<pdfrwt beam="2">  1       21 0.24144724E-01 0.12500000E+03</pdfrwt>
<totfact> 0.78600162E+06</totfact>
</mgrwt>
</event>
<event>
 6      0 +4.1053447e-01 1.25000000e+02 7.54677100e-03 1.12640300e-01
       21 -1    0    0  502  501 +0.0000000000e+00 +0.0000000000e+00 +1.3604802663e+02 1.3604802663e+02 0.0000000000e+00 0.0000e+00 -1.0000e+00
       21 -1    0    0  501  502 -0.0000000000e+00 -0.0000000000e+00 -2.8712287100e+01 2.8712287100e+01 0.0000000000e+00 0.0000e+00 -1.0000e+00
       25  2    1    2    0    0 +0.0000000000e+00 +0.0000000000e+00 +1.0733573953e+02 1.6476031373e+02 1.2500000000e+02 0.0000e+00 0.0000e+00
      -15  1    3    3    0    0 +6.1816771073e+01 -8.4349013007e+00 +4.9373272563e+01 7.9582275152e+01 1.7770000000e+00 0.0000e+00 1.0000e+00
       15  1    3    3    0    0 -6.1815508396e+01 +8.4351241434e+00 +5.7960089505e+01 8.5175337404e+01 1.7770000000e+00 0.0000e+00 1.0000e+00
       22  1    3    3    0    0 -1.2626768010e-03 -2.2284265858e-04 +2.3774624243e-03 2.7011736585e-03 0.0000000000e+00 0.0000e+00 -1.0000e+00
<mgrwt>
<rscale>  2 0.12500000E+03</rscale>
<asrwt>0</asrwt>
<pdfrwt beam="1">  1       21 0.20007063E-01 0.12500000E+03</pdfrwt>
<pdfrwt beam="2">  1       21 0.42223952E-02 0.12500000E+03</pdfrwt>
<totfact> 0.82205103E+06</totfact>
</mgrwt>
</event>
<event>
 6      0 +4.1053447e-01 1.25000000e+02 7.54677100e-03 1.12640300e-01
       21 -1    0    0  502  501 +0.0000000000e+00 +0.0000000000e+00 +3.7752901554e+01 3.7752901554e+01 0.0000000000e+00 0.0000e+00 1.0000e+00
       21 -1    0    0  501  502 -0.0000000000e+00 -0.0000000000e+00 -1.0346886833e+02 1.0346886833e+02 0.0000000000e+00 0.0000e+00 1.0000e+00
       25  2    1    2    0    0 +0.0000000000e+00 +0.0000000000e+00 -6.5715966778e+01 1.4122176989e+02 1.2500000000e+02 0.0000e+00 0.0000e+00
      -15  1    3    3    0    0 +3.1326576919e+00 +4.4276706075e+01 -8.2527615052e+01 9.3724090927e+01 1.7770000000e+00 0.0000e+00 1.0000e+00
       15  1    3    3    0    0 -3.1326579670e+00 -4.4276705846e+01 +1.6811648034e+01 4.7497678524e+01 1.7770000000e+00 0.0000e+00 1.0000e+00
       22  1    3    3    0    0 +2.7517417896e-07 -2.2877399414e-07 +2.4302512685e-07 4.3257320934e-07 0.0000000000e+00 0.0000e+00 -1.0000e+00
<mgrwt>
<rscale>  2 0.12500000E+03</rscale>
<asrwt>0</asrwt>
<pdfrwt beam="1">  1       21 0.55518974E-02 0.12500000E+03</pdfrwt>
<pdfrwt beam="2">  1       21 0.15216010E-01 0.12500000E+03</pdfrwt>
<totfact> 0.86128818E+06</totfact>
</mgrwt>
</event>
<event>
 6      0 +4.1053447e-01 1.25000000e+02 7.54677100e-03 1.12640300e-01
       21 -1    0    0  502  501 +0.0000000000e+00 +0.0000000000e+00 +6.7088942171e+01 6.7088942171e+01 0.0000000000e+00 0.0000e+00 -1.0000e+00
       21 -1    0    0  501  502 -0.0000000000e+00 -0.0000000000e+00 -5.8224945477e+01 5.8224945477e+01 0.0000000000e+00 0.0000e+00 -1.0000e+00
       25  2    1    2    0    0 +0.0000000000e+00 +0.0000000000e+00 +8.8639966946e+00 1.2531388765e+02 1.2500000000e+02 0.0000e+00 0.0000e+00
      -15  1    3    3    0    0 -8.9147014204e+00 -3.4508994660e+01 +5.5500498546e+01 6.5983374283e+01 1.7770000000e+00 0.0000e+00 -1.0000e+00
       15  1    3    3    0    0 +8.7070086122e+00 +3.4446494181e+01 -4.6976994622e+01 5.8926808102e+01 1.7770000000e+00 0.0000e+00 -1.0000e+00
       22  1    3    3    0    0 +2.0769280820e-01 +6.2500479176e-02 +3.4049277053e-01 4.0370526286e-01 0.0000000000e+00 0.0000e+00 -1.0000e+00
<mgrwt>
<rscale>  2 0.12500000E+03</rscale>
<asrwt>0</asrwt>
<pdfrwt beam="1">  1       21 0.98660209E-02 0.12500000E+03</pdfrwt>
<pdfrwt beam="2">  1       21 0.85624920E-02 0.12500000E+03</pdfrwt>
<totfact> 0.88938628E+06</totfact>
</mgrwt>
</event>
<event>
 6      0 +4.1053447e-01 1.25000000e+02 7.54677100e-03 1.12640300e-01
       21 -1    0    0  502  501 +0.0000000000e+00 +0.0000000000e+00 +1.3365619389e+01 1.3365619389e+01 0.0000000000e+00 0.0000e+00 -1.0000e+00
       21 -1    0    0  501  502 -0.0000000000e+00 -0.0000000000e+00 -2.9226105325e+02 2.9226105325e+02 0.0000000000e+00 0.0000e+00 -1.0000e+00
       25  2    1    2    0    0 +0.0000000000e+00 +0.0000000000e+00 -2.7889543386e+02 3.0562667264e+02 1.2500000000e+02 0.0000e+00 0.0000e+00
      -15  1    3    3    0    0 -3.4955813338e+01 +3.2889663777e+01 -2.3723154513e+02 2.4204462937e+02 1.7770000000e+00 0.0000e+00 1.0000e+00
       15  1    3    3    0    0 +3.4955813334e+01 -3.2889663792e+01 -4.1663888644e+01 6.3582043189e+01 1.7770000000e+00 0.0000e+00 1.0000e+00
       22  1    3    3    0    0 +3.7489624454e-09 +1.4549193824e-08 -7.2496042952e-08 7.4036545057e-08 0.0000000000e+00 0.0000e+00 1.0000e+00
<mgrwt>
<rscale>  2 0.12500000E+03</rscale>
<asrwt>0</asrwt>
<pdfrwt beam="1">  1       21 0.19655324E-02 0.12500000E+03</pdfrwt>
<pdfrwt beam="2">  1       21 0.42979563E-01 0.12500000E+03</pdfrwt>
<totfact> 0.63307935E+06</totfact>
</mgrwt>
</event>
<event>
 6      0 +4.1053447e-01 1.25000000e+02 7.54677100e-03 1.12640300e-01
       21 -1    0    0  502  501 +0.0000000000e+00 +0.0000000000e+00 +1.1423152426e+01 1.1423152426e+01 0.0000000000e+00 0.0000e+00 1.0000e+00
       21 -1    0    0  501  502 -0.0000000000e+00 -0.0000000000e+00 -3.4195901921e+02 3.4195901921e+02 0.0000000000e+00 0.0000e+00 1.0000e+00
       25  2    1    2    0    0 +0.0000000000e+00 +0.0000000000e+00 -3.3053586679e+02 3.5338217164e+02 1.2500000000e+02 0.0000e+00 0.0000e+00
      -15  1    3    3    0    0 +4.7451459064e+01 +1.7274423741e+01 -6.1290861913e+01 7.9434086927e+01 1.7770000000e+00 0.0000e+00 -1.0000e+00
       15  1    3    3    0    0 -4.7414033703e+01 -1.7265127973e+01 -2.6915951768e+02 2.7385430236e+02 1.7770000000e+00 0.0000e+00 -1.0000e+00
       22  1    3    3    0    0 -3.7425360506e-02 -9.2957685166e-03 -8.5487211008e-02 9.3782365972e-02 0.0000000000e+00 0.0000e+00 1.0000e+00
<mgrwt>
<rscale>  2 0.12500000E+03</rscale>
<asrwt>0</asrwt>
<pdfrwt beam="1">  1       21 0.16798755E-02 0.12500000E+03</pdfrwt>
<pdfrwt beam="2">  1       21 0.50288086E-01 0.12500000E+03</pdfrwt>
<totfact> 0.58183666E+06</totfact>
</mgrwt>
</event>
<event>
 6      0 +4.1053447e-01 1.25000000e+02 7.54677100e-03 1.12640300e-01
       21 -1    0    0  502  501 +0.0000000000e+00 +0.0000000000e+00 +1.5010770943e+02 1.5010770943e+02 0.0000000000e+00 0.0000e+00 -1.0000e+00
       21 -1    0    0  501  502 -0.0000000000e+00 -0.0000000000e+00 -2.6022980531e+01 2.6022980531e+01 0.0000000000e+00 0.0000e+00 -1.0000e+00
       25  2    1    2    0    0 +0.0000000000e+00 +0.0000000000e+00 +1.2408472890e+02 1.7613068996e+02 1.2500000000e+02 0.0000e+00 0.0000e+00
      -15  1    3    3    0    0 +3.6025548021e+01 -4.0283100908e+01 +1.7875502240e+01 5.6949623689e+01 1.7770000000e+00 0.0000e+00 1.0000e+00
       15  1    3    3    0    0 -3.6025539725e+01 +4.0283095158e+01 +1.0620916775e+02 1.1918100650e+02 1.7770000000e+00 0.0000e+00 1.0000e+00
       22  1    3    3    0    0 -8.2955875476e-06 +5.7503188423e-06 +5.8914472776e-05 5.9772887181e-05 0.0000000000e+00 0.0000e+00 -1.0000e+00
<mgrwt>
<rscale>  2 0.12500000E+03</rscale>
<asrwt>0</asrwt>
<pdfrwt beam="1">  1       21 0.22074663E-01 0.12500000E+03</pdfrwt>
<pdfrwt beam="2">  1       21 0.38269090E-02 0.12500000E+03</pdfrwt>
<totfact> 0.80402482E+06</totfact>
</mgrwt>
</event>
<event>
 6      0 +4.1053447e-01 1.25000000e+02 7.54677100e-03 1.12640300e-01
       21 -1    0    0  502  501 +0.0000000000e+00 +0.0000000000e+00 +2.7073737840e+01 2.7073737840e+01 0.0000000000e+00 0.0000e+00 -1.0000e+00
       21 -1    0    0  501  502 -0.0000000000e+00 -0.0000000000e+00 -1.4428188760e+02 1.4428188760e+02 0.0000000000e+00 0.0000e+00 -1.0000e+00
       25  2    1    2    0    0 +0.0000000000e+00 +0.0000000000e+00 -1.1720814976e+02 1.7135562544e+02 1.2500000000e+02 0.0000e+00 0.0000e+00
      -15  1    3    3    0    0 -1.7139516958e+01 +4.3321271865e+01 -1.1548875366e+02 1.2454439204e+02 1.7770000000e+00 0.0000e+00 1.0000e+00
       15  1    3    3    0    0 +1.4569686666e+01 -3.9721959163e+01 -1.8411165699e+00 4.2386993860e+01 1.7770000000e+00 0.0000e+00 1.0000e+00
       22  1    3    3    0    0 +2.5698302925e+00 -3.5993127017e+00 +1.2172046850e-01 4.4242395425e+00 0.0000000000e+00 0.0000e+00 1.0000e+00
<mgrwt>
<rscale>  2 0.12500000E+03</rscale>
<asrwt>0</asrwt>
<pdfrwt beam="1">  1       21 0.39814321E-02 0.12500000E+03</pdfrwt>
<pdfrwt beam="2">  1       21 0.21217924E-01 0.12500000E+03</pdfrwt>
<totfact> 0.81149594E+06</totfact>
</mgrwt>
</event>
<event>
 6      0 +4.1053447e-01 1.25000000e+02 7.54677100e-03 1.12640300e-01
       21 -1    0    0  502  501 +0.0000000000e+00 +0.0000000000e+00 +1.6370424603e+02 1.6370424603e+02 0.0000000000e+00 0.0000e+00 -1.0000e+00
       21 -1    0    0  501  502 -0.0000000000e+00 -0.0000000000e+00 -2.3861629095e+01 2.3861629095e+01 0.0000000000e+00 0.0000e+00 -1.0000e+00
       25  2    1    2    0    0 +0.0000000000e+00 +0.0000000000e+00 +1.3984261693e+02 1.8756587512e+02 1.2500000000e+02 0.0000e+00 0.0000e+00
      -15  1    3    3    0    0 +2.4952813248e+01 -3.2087027176e+01 +1.3486800175e+02 1.4087141594e+02 1.7770000000e+00 0.0000e+00 -1.0000e+00
       15  1    3    3    0    0 -2.3264999489e+01 +2.9661194397e+01 -3.3245950659e+00 3.7884790030e+01 1.7770000000e+00 0.0000e+00 -1.0000e+00
       22  1    3    3    0    0 -1.6878137590e+00 +2.4258327790e+00 +8.2992102429e+00 8.8096691546e+00 0.0000000000e+00 0.0000e+00 -1.0000e+00
<mgrwt>
<rscale>  2 0.12500000E+03</rscale>
<asrwt>0</asrwt>
<pdfrwt beam="1">  1       21 0.24074153E-01 0.12500000E+03</pdfrwt>
<pdfrwt beam="2">  1       21 0.35090632E-02 0.12500000E+03</pdfrwt>
<totfact> 0.78661604E+06</totfact>
</mgrwt>
</event>
<event>
 6      0 +4.1053447e-01 1.25000000e+02 7.54677100e-03 1.12640300e-01
       21 -1    0    0  502  501 +0.0000000000e+00 +0.0000000000e+00 +3.9225714493e+01 3.9225714493e+01 0.0000000000e+00 0.0000e+00 -1.0000e+00
       21 -1    0    0  501  502 -0.0000000000e+00 -0.0000000000e+00 -9.9583909445e+01 9.9583909445e+01 0.0000000000e+00 0.0000e+00 -1.0000e+00
       25  2    1    2    0    0 +0.0000000000e+00 +0.0000000000e+00 -6.0358194952e+01 1.3880962394e+02 1.2500000000e+02 0.0000e+00 0.0000e+00
      -15  1    3    3    0    0 -3.8639144906e+01 +4.8760593303e+01 -3.6508491126e+01 7.2156819716e+01 1.7770000000e+00 0.0000e+00 1.0000e+00
       15  1    3    3    0    0 +3.8622395129e+01 -4.8745061762e+01 -2.3838232256e+01 6.6627242910e+01 1.7770000000e+00 0.0000e+00 1.0000e+00
       22  1    3    3    0    0 +1.6749776386e-02 -1.5531540740e-02 -1.1471569097e-02 2.5561311866e-02 0.0000000000e+00 0.0000e+00 -1.0000e+00
<mgrwt>
<rscale>  2 0.12500000E+03</rscale>
<asrwt>0</asrwt>
<pdfrwt beam="1">  1       21 0.57684875E-02 0.12500000E+03</pdfrwt>
<pdfrwt beam="2">  1       21 0.14644692E-01 0.12500000E+03</pdfrwt>
<totfact> 0.86545842E+06</totfact>
</mgrwt>
</event>
<event>
 6      0 +4.1053447e-01 1.25000000e+02 7.54677100e-03 1.12640300e-01
       21 -1    0    0  502  501 +0.0000000000e+00 +0.0000000000e+00 +2.7307853746e+01 2.7307853746e+01 0.0000000000e+00 0.0000e+00 -1.0000e+00
       21 -1    0    0  501  502 -0.0000000000e+00 -0.0000000000e+00 -1.4304492899e+02 1.4304492899e+02 0.0000000000e+00 0.0000e+00 -1.0000e+00
       25  2    1    2    0    0 +0.0000000000e+00 +0.0000000000e+00 -1.1573707524e+02 1.7035278274e+02 1.2500000000e+02 0.0000e+00 0.0000e+00
      -15  1    3    3    0    0 -6.8199982238e+00 +6.1408080066e+01 -4.5257736294e+01 7.6608648967e+01 1.7770000000e+00 0.0000e+00 1.0000e+00
       15  1    3    3    0    0 +6.8200938444e+00 -6.1407652496e+01 -7.0478864718e+01 9.3743488127e+01 1.7770000000e+00 0.0000e+00 1.0000e+00
       22  1    3    3    0    0 -9.5620550236e-05 -4.2756992708e-04 -4.7422041481e-04 6.4563483022e-04 0.0000000000e+00 0.0000e+00 1.0000e+00
<mgrwt>
<rscale>  2 0.12500000E+03</rscale>
<asrwt>0</asrwt>
<pdfrwt beam="1">  1       21 0.40158608E-02 0.12500000E+03</pdfrwt>
<pdfrwt beam="2">  1       21 0.21036019E-01 0.12500000E+03</pdfrwt>
<totfact> 0.81308242E+06</totfact>
</mgrwt>
</event>
<event>
 6      0 +4.1053447e-01 1.25000000e+02 7.54677100e-03 1.12640300e-01
       21 -1    0    0  502  501 +0.0000000000e+00 +0.0000000000e+00 +1.5025863200e+03 1.5025863200e+03 0.0000000000e+00 0.0000e+00 1.0000e+00
       21 -1    0    0  501  502 -0.0000000000e+00 -0.0000000000e+00 -2.5996842565e+00 2.5996842565e+00 0.0000000000e+00 0.0000e+00 1.0000e+00
       25  2    1    2    0    0 +0.0000000000e+00 +0.0000000000e+00 +1.4999866357e+03 1.5051860042e+03 1.2500000000e+02 0.0000e+00 0.0000e+00
      -15  1    3    3    0    0 +6.2166240784e+01 -4.6114769944e+00 +7.0016618844e+02 7.0293794632e+02 1.7770000000e+00 0.0000e+00 -1.0000e+00
       15  1    3    3    0    0 -6.2166767241e+01 +4.6114906366e+00 +7.9981527488e+02 8.0224285878e+02 1.7770000000e+00 0.0000e+00 -1.0000e+00
       22  1    3    3    0    0 +5.2645717027e-04 -1.3642207451e-05 +5.1742535715e-03 5.2009848380e-03 0.0000000000e+00 0.0000e+00 -1.0000e+00
<mgrwt>
<rscale>  2 0.12500000E+03</rscale>
<asrwt>0</asrwt>
<pdfrwt beam="1">  1       21 0.22096797E+00 0.12500000E+03</pdfrwt>
<pdfrwt beam="2">  1       21 0.38230756E-03 0.12500000E+03</pdfrwt>
<totfact> 0.10538258E+06</totfact>
</mgrwt>
</event>
<event>
 6      0 +4.1053447e-01 1.25000000e+02 7.54677100e-03 1.12640300e-01
       21 -1    0    0  502  501 +0.0000000000e+00 +0.0000000000e+00 +9.8337048361e+01 9.8337048361e+01 0.0000000000e+00 0.0000e+00 1.0000e+00
       21 -1    0    0  501  502 -0.0000000000e+00 -0.0000000000e+00 -3.9723075536e+01 3.9723075536e+01 0.0000000000e+00 0.0000e+00 1.0000e+00
       25  2    1    2    0    0 +0.0000000000e+00 +0.0000000000e+00 +5.8613972825e+01 1.3806012390e+02 1.2500000000e+02 0.0000e+00 0.0000e+00
      -15  1    3    3    0    0 -6.7603237137e+00 +4.5301519808e+01 +7.6233296813e+01 8.8952813028e+01 1.7770000000e+00 0.0000e+00 -1.0000e+00
       15  1    3    3    0    0 +6.7603237076e+00 -4.5301519735e+01 -1.7619323943e+01 4.9107310781e+01 1.7770000000e+00 0.0000e+00 -1.0000e+00
       22  1    3    3    0    0 +6.1426972982e-09 -7.2810681748e-08 -4.6559309950e-08 8.6642353676e-08 0.0000000000e+00 0.0000e+00 1.0000e+00
<mgrwt>
<rscale>  2 0.12500000E+03</rscale>
<asrwt>0</asrwt>
<pdfrwt beam="1">  1       21 0.14461331E-01 0.12500000E+03</pdfrwt>
<pdfrwt beam="2">  1       21 0.58416288E-02 0.12500000E+03</pdfrwt>
<totfact> 0.86674960E+06</totfact>
</mgrwt>
</event>
<event>
 6      0 +4.1053447e-01 1.25000000e+02 7.54677100e-03 1.12640300e-01
       21 -1    0    0  502  501 +0.0000000000e+00 +0.0000000000e+00 +3.4174591544e+01 3.4174591544e+01 0.0000000000e+00 0.0000e+00 -1.0000e+00
       21 -1    0    0  501  502 -0.0000000000e+00 -0.0000000000e+00 -1.1430275604e+02 1.1430275604e+02 0.0000000000e+00 0.0000e+00 -1.0000e+00
       25  2    1    2    0    0 +0.0000000000e+00 +0.0000000000e+00 -8.0128164494e+01 1.4847734758e+02 1.2500000000e+02 0.0000e+00 0.0000e+00
      -15  1    3    3    0    0 -5.5539113947e+01 +3.5205139353e+00 -6.3517738220e+00 5.6040074555e+01 1.7770000000e+00 0.0000e+00 -1.0000e+00
       15  1    3    3    0    0 +5.5541843127e+01 -3.5138911388e+00 -7.3776168854e+01 9.2430106506e+01 1.7770000000e+00 0.0000e+00 -1.0000e+00
       22  1    3    3    0    0 -2.7291798089e-03 -6.6227965723e-03 -2.2181970664e-04 7.1665236237e-03 0.0000000000e+00 0.0000e+00 -1.0000e+00
<mgrwt>
<rscale>  2 0.12500000E+03</rscale>
<asrwt>0</asrwt>
<pdfrwt beam="1">  1       21 0.50256752E-02 0.12500000E+03</pdfrwt>
<pdfrwt beam="2">  1       21 0.16809229E-01 0.12500000E+03</pdfrwt>
<totfact> 0.84881713E+06</totfact>
</mgrwt>
</event>
<event>
 6      0 +4.1053447e-01 1.25000000e+02 7.54677100e-03 1.12640300e-01
       21 -1    0    0  502  501 +0.0000000000e+00 +0.0000000000e+00 +1.3626453246e+02 1.3626453246e+02 0.0000000000e+00 0.0000e+00 1.0000e+00
       21 -1    0    0  501  502 -0.0000000000e+00 -0.0000000000e+00 -2.8666667177e+01 2.8666667177e+01 0.0000000000e+00 0.0000e+00 1.0000e+00
       25  2    1    2    0    0 +0.0000000000e+00 +0.0000000000e+00 +1.0759786528e+02 1.6493119964e+02 1.2500000000e+02 0.0000e+00 0.0000e+00
      -15  1    3    3    0    0 +1.5514480412e+01 -5.5312122334e+01 +8.6077399267e+01 1.0350172159e+02 1.7770000000e+00 0.0000e+00 1.0000e+00
       15  1    3    3    0    0 -1.5531303076e+01 +5.5336157889e+01 +2.1487937251e+01 6.1385673585e+01 1.7770000000e+00 0.0000e+00 1.0000e+00
       22  1    3    3    0    0 +1.6822663724e-02 -2.4035554969e-02 +3.2528755586e-02 4.3804450200e-02 0.0000000000e+00 0.0000e+00 1.0000e+00
<mgrwt>
<rscale>  2 0.12500000E+03</rscale>
<asrwt>0</asrwt>
<pdfrwt beam="1">  1       21 0.20038902E-01 0.12500000E+03</pdfrwt>
<pdfrwt beam="2">  1       21 0.42156864E-02 0.12500000E+03</pdfrwt>
<totfact> 0.82177389E+06</totfact>
</mgrwt>
</event>
<event>
 6      0 +4.1053447e-01 1.25000000e+02 7.54677100e-03 1.12640300e-01
       21 -1    0    0  502  501 +0.0000000000e+00 +0.0000000000e+00 +5.9368739098e+01 5.9368739098e+01 0.0000000000e+00 0.0000e+00 1.0000e+00
       21 -1    0    0  501  502 -0.0000000000e+00 -0.0000000000e+00 -6.5796411703e+01 6.5796411703e+01 0.0000000000e+00 0.0000e+00 1.0000e+00
       25  2    1    2    0    0 +0.0000000000e+00 +0.0000000000e+00 -6.4276726051e+00 1.2516515080e+02 1.2500000000e+02 0.0000e+00 0.0000e+00
      -15  1    3    3    0    0 +1.8941047626e+01 +5.9295669672e+01 -8.4260305931e+00 6.2840237488e+01 1.7770000000e+00 0.0000e+00 -1.0000e+00
       15  1    3    3    0    0 -1.8745401317e+01 -5.7988022859e+01 +1.8810165484e+00 6.0997514851e+01 1.7770000000e+00 0.0000e+00 -1.0000e+00
       22  1    3    3    0    0 -1.9564630916e-01 -1.3076468126e+00 +1.1734143940e-01 1.3273984625e+00 0.0000000000e+00 0.0000e+00 1.0000e+00
<mgrwt>
<rscale>  2 0.12500000E+03</rscale>
<asrwt>0</asrwt>
<pdfrwt beam="1">  1       21 0.87306969E-02 0.12500000E+03</pdfrwt>
<pdfrwt beam="2">  1       21 0.96759429E-02 0.12500000E+03</pdfrwt>
<totfact> 0.88967736E+06</totfact>
</mgrwt>
</event>
<event>
 6      0 +4.1053447e-01 1.25000000e+02 7.54677100e-03 1.12640300e-01
       21 -1    0    0  502  501 +0.0000000000e+00 +0.0000000000e+00 +6.7307219220e+00 6.7307219220e+00 0.0000000000e+00 0.0000e+00 -1.0000e+00
       21 -1    0    0  501  502 -0.0000000000e+00 -0.0000000000e+00 -5.8036122206e+02 5.8036122206e+02 0.0000000000e+00 0.0000e+00 -1.0000e+00
       25  2    1    2    0    0 +0.0000000000e+00 +0.0000000000e+00 -5.7363050014e+02 5.8709194398e+02 1.2500000000e+02 0.0000e+00 0.0000e+00
      -15  1    3    3    0    0 +5.7485899263e+01 -2.4422453318e+01 -2.8016073542e+02 2.8704403885e+02 1.7770000000e+00 0.0000e+00 -1.0000e+00
       15  1    3    3    0    0 -5.7485899101e+01 +2.4422453225e+01 -2.9346976387e+02 3.0004790426e+02 1.7770000000e+00 0.0000e+00 -1.0000e+00
       22  1    3    3    0    0 -1.6253636049e-07 +9.2838486394e-08 -9.3016162356e-07 9.4880856814e-07 0.0000000000e+00 0.0000e+00 1.0000e+00
<mgrwt>
<rscale>  2 0.12500000E+03</rscale>
<asrwt>0</asrwt>
<pdfrwt beam="1">  1       21 0.98981133E-03 0.12500000E+03</pdfrwt>
<pdfrwt beam="2">  1       21 0.85347300E-01 0.12500000E+03</pdfrwt>
<totfact> 0.39352737E+06</totfact>
</mgrwt>
</event>
<event>
 6      0 +4.1053447e-01 1.25000000e+02 7.54677100e-03 1.12640300e-01
       21 -1    0    0  502  501 +0.0000000000e+00 +0.0000000000e+00 +3.0054746908e+01 3.0054746908e+01 0.0000000000e+00 0.0000e+00 -1.0000e+00
       21 -1    0    0  501  502 -0.0000000000e+00 -0.0000000000e+00 -1.2997114938e+02 1.2997114938e+02 0.0000000000e+00 0.0000e+00 -1.0000e+00
       25  2    1    2    0    0 +0.0000000000e+00 +0.0000000000e+00 -9.9916402472e+01 1.6002589629e+02 1.2500000000e+02 0.0000e+00 0.0000e+00
      -15  1    3    3    0    0 -2.0974873446e+01 -3.0980564316e+01 +1.3975722631e+01 3.9977734220e+01 1.7770000000e+00 0.0000e+00 1.0000e+00
       15  1    3    3    0    0 +2.1027175003e+01 +3.1052267191e+01 -1.1392627232e+02 1.1995306849e+02 1.7770000000e+00 0.0000e+00 1.0000e+00
       22  1    3    3    0    0 -5.2301556859e-02 -7.1702875470e-02 +3.4147221704e-02 9.5093574703e-02 0.0000000000e+00 0.0000e+00 -1.0000e+00
<mgrwt>
<rscale>  2 0.12500000E+03</rscale>
<asrwt>0</asrwt>
<pdfrwt beam="1">  1       21 0.44198158E-02 0.12500000E+03</pdfrwt>
<pdfrwt beam="2">  1       21 0.19113404E-01 0.12500000E+03</pdfrwt>
<totfact> 0.82974447E+06</totfact>
</mgrwt>
</event>
<event>
 6      0 +4.1053447e-01 1.25000000e+02 7.54677100e-03 1.12640300e-01
       21 -1    0    0  502  501 +0.0000000000e+00 +0.0000000000e+00 +1.8810780876e+01 1.8810780876e+01 0.0000000000e+00 0.0000e+00 -1.0000e+00
       21 -1    0    0  501  502 -0.0000000000e+00 -0.0000000000e+00 -2.0766017242e+02 2.0766017242e+02 0.0000000000e+00 0.0000e+00 -1.0000e+00
       25  2    1    2    0    0 +0.0000000000e+00 +0.0000000000e+00 -1.8884939155e+02 2.2647095330e+02 1.2500000000e+02 0.0000e+00 0.0000e+00
      -15  1    3    3    0    0 -4.6599506387e+00 +5.0740585304e+01 -1.5991797964e+02 1.6784886081e+02 1.7770000000e+00 0.0000e+00 -1.0000e+00
       15  1    3    3    0    0 +4.6575951037e+00 -5.0727405138e+01 -2.8919974672e+01 5.8604483516e+01 1.7770000000e+00 0.0000e+00 -1.0000e+00
       22  1    3    3    0    0 +2.3555350080e-03 -1.3180165739e-02 -1.1437243428e-02 1.7608970763e-02 0.0000000000e+00 0.0000e+00 1.0000e+00
<mgrwt>
<rscale>  2 0.12500000E+03</rscale>
<asrwt>0</asrwt>
<pdfrwt beam="1">  1       21 0.27662914E-02 0.12500000E+03</pdfrwt>
<pdfrwt beam="2">  1       21 0.30538259E-01 0.12500000E+03</pdfrwt>
<totfact> 0.73112579E+06</totfact>
</mgrwt>
</event>
<event>
 6      0 +4.1053447e-01 1.25000000e+02 7.54677100e-03 1.12640300e-01
       21 -1    0    0  502  501 +0.0000000000e+00 +0.0000000000e+00 +1.2311505077e+02 1.2311505077e+02 0.0000000000e+00 0.0000e+00 1.0000e+00
       21 -1    0    0  501  502 -0.0000000000e+00 -0.0000000000e+00 -3.1728452173e+01 3.1728452173e+01 0.0000000000e+00 0.0000e+00 1.0000e+00
       25  2    1    2    0    0 +0.0000000000e+00 +0.0000000000e+00 +9.1386598594e+01 1.5484350294e+02 1.2500000000e+02 0.0000e+00 0.0000e+00
      -15  1    3    3    0    0 +5.8061231617e+01 +9.1777469777e+00 +7.1901919820e+01 9.2889081486e+01 1.7770000000e+00 0.0000e+00 1.0000e+00
       15  1    3    3    0    0 -5.7815702401e+01 -9.1116828348e+00 +1.9390655558e+01 6.1683332110e+01 1.7770000000e+00 0.0000e+00 1.0000e+00
       22  1    3    3    0    0 -2.4552921642e-01 -6.6064142932e-02 +9.4023215902e-02 2.7108934362e-01 0.0000000000e+00 0.0000e+00 -1.0000e+00
<mgrwt>
<rscale>  2 0.12500000E+03</rscale>
<asrwt>0</asrwt>
<pdfrwt beam="1">  1       21 0.18105154E-01 0.12500000E+03</pdfrwt>
<pdfrwt beam="2">  1       21 0.46659489E-02 0.12500000E+03</pdfrwt>
<totfact> 0.83821165E+06</totfact>
</mgrwt>
</event>
<event>
 6      0 +4.1053447e-01 1.25000000e+02 7.54677100e-03 1.12640300e-01
       21 -1    0    0  502  501 +0.0000000000e+00 +0.0000000000e+00 +8.8650566302e+02 8.8650566302e+02 0.0000000000e+00 0.0000e+00 -1.0000e+00
       21 -1    0    0  501  502 -0.0000000000e+00 -0.0000000000e+00 -4.4063452304e+00 4.4063452304e+00 0.0000000000e+00 0.0000e+00 -1.0000e+00
       25  2    1    2    0    0 +0.0000000000e+00 +0.0000000000e+00 +8.8209931779e+02 8.9091200825e+02 1.2500000000e+02 0.0000e+00 0.0000e+00
      -15  1    3    3    0    0 -4.8745211330e+00 +8.1973865954e+00 +9.9302527097e-01 9.7520219198e+00 1.7770000000e+00 0.0000e+00 1.0000e+00
       15  1    3    3    0    0 +4.8252042468e+00 -8.1136233550e+00 +8.7669565418e+02 8.7674827703e+02 1.7770000000e+00 0.0000e+00 1.0000e+00
       22  1    3    3    0    0 +4.9316886265e-02 -8.3763240463e-02 +4.4106383871e+00 4.4117093532e+00 0.0000000000e+00 0.0000e+00 1.0000e+00
<mgrwt>
<rscale>  2 0.12500000E+03</rscale>
<asrwt>0</asrwt>
<pdfrwt beam="1">  1       21 0.13036836E+00 0.12500000E+03</pdfrwt>
<pdfrwt beam="2">  1       21 0.64799256E-03 0.12500000E+03</pdfrwt>
<totfact> 0.24752979E+06</totfact>
</mgrwt>
</event>
<event>
 6      0 +4.1053447e-01 1.25000000e+02 7.54677100e-03 1.12640300e-01
       21 -1    0    0  502  501 +0.0000000000e+00 +0.0000000000e+00 +7.0340615633e+01 7.0340615633e+01 0.0000000000e+00 0.0000e+00 1.0000e+00
       21 -1    0    0  501  502 -0.0000000000e+00 -0.0000000000e+00 -5.5533349613e+01 5.5533349613e+01 0.0000000000e+00 0.0000e+00 1.0000e+00
       25  2    1    2    0    0 +0.0000000000e+00 +0.0000000000e+00 +1.4807266020e+01 1.2587396525e+02 1.2500000000e+02 0.0000e+00 0.0000e+00
      -15  1    3    3    0    0 -6.0702228779e+01 +4.1141258075e+00 -6.8873367744e+00 6.1255854796e+01 1.7770000000e+00 0.0000e+00 -1.0000e+00
       15  1    3    3    0    0 +6.0701847825e+01 -4.1141077191e+00 +2.1694449981e+01 6.4617699593e+01 1.7770000000e+00 0.0000e+00 -1.0000e+00
       22  1    3    3    0    0 +3.8095377173e-04 -1.8088476911e-05 +1.5281282048e-04 4.1085852468e-04 0.0000000000e+00 0.0000e+00 1.0000e+00
<mgrwt>
<rscale>  2 0.12500000E+03</rscale>
<asrwt>0</asrwt>
<pdfrwt beam="1">  1       21 0.10344208E-01 0.12500000E+03</pdfrwt>
<pdfrwt beam="2">  1       21 0.81666690E-02 0.12500000E+03</pdfrwt>
<totfact> 0.88834621E+06</totfact>
</mgrwt>
</event>
<event>
 6      0 +4.1053447e-01 1.25000000e+02 7.54677100e-03 1.12640300e-01
       21 -1    0    0  502  501 +0.0000000000e+00 +0.0000000000e+00 +4.0149932792e+01 4.0149932792e+01 0.0000000000e+00 0.0000e+00 1.0000e+00
       21 -1    0    0  501  502 -0.0000000000e+00 -0.0000000000e+00 -9.7291570081e+01 9.7291570081e+01 0.0000000000e+00 0.0000e+00 1.0000e+00
       25  2    1    2    0    0 +0.0000000000e+00 +0.0000000000e+00 -5.7141637289e+01 1.3744150287e+02 1.2500000000e+02 0.0000e+00 0.0000e+00
      -15  1    3    3    0    0 -3.1349618534e+01 -3.6827322455e+01 -7.2055078908e+01 8.6799437710e+01 1.7770000000e+00 0.0000e+00 1.0000e+00
       15  1    3    3    0    0 +3.1349612999e+01 +3.6827312347e+01 +1.4913439560e+01 5.0642053458e+01 1.7770000000e+00 0.0000e+00 1.0000e+00
       22  1    3    3    0    0 +5.5353124948e-06 +1.0107466084e-05 +2.0568125380e-06 1.1706025495e-05 0.0000000000e+00 0.0000e+00 -1.0000e+00
<mgrwt>
<rscale>  2 0.12500000E+03</rscale>
<asrwt>0</asrwt>
<pdfrwt beam="1">  1       21 0.59044020E-02 0.12500000E+03</pdfrwt>
<pdfrwt beam="2">  1       21 0.14307584E-01 0.12500000E+03</pdfrwt>
<totfact> 0.86781676E+06</totfact>
</mgrwt>
</event>
<event>
 6      0 +4.1053447e-01 1.25000000e+02 7.54677100e-03 1.12640300e-01
       21 -1    0    0  502  501 +0.0000000000e+00 +0.0000000000e+00 +6.1791776457e+01 6.1791776457e+01 0.0000000000e+00 0.0000e+00 -1.0000e+00
       21 -1    0    0  501  502 -0.0000000000e+00 -0.0000000000e+00 -6.3216340814e+01 6.3216340814e+01 0.0000000000e+00 0.0000e+00 -1.0000e+00
       25  2    1    2    0    0 +0.0000000000e+00 +0.0000000000e+00 -1.4245643571e+00 1.2500811727e+02 1.2500000000e+02 0.0000e+00 0.0000e+00
      -15  1    3    3    0    0 -4.3694416530e+01 +2.2273377452e+01 -3.9416047154e+01 6.2945118010e+01 1.7770000000e+00 0.0000e+00 1.0000e+00
       15  1    3    3    0    0 +4.3694416515e+01 -2.2273377429e+01 +3.7991482821e+01 6.2062999223e+01 1.7770000000e+00 0.0000e+00 1.0000e+00
       22  1    3    3    0    0 +1.5042931962e-08 -2.3863937690e-08 -2.4464235402e-08 3.7340007203e-08 0.0000000000e+00 0.0000e+00 1.0000e+00
<mgrwt>
<rscale>  2 0.12500000E+03</rscale>
<asrwt>0</asrwt>
<pdfrwt beam="1">  1       21 0.90870260E-02 0.12500000E+03</pdfrwt>
<pdfrwt beam="2">  1       21 0.92965207E-02 0.12500000E+03</pdfrwt>
<totfact> 0.89000540E+06</totfact>
</mgrwt>
</event>
<event>
 6      0 +4.1053447e-01 1.25000000e+02 7.54677100e-03 1.12640300e-01
       21 -1    0    0  502  501 +0.0000000000e+00 +0.0000000000e+00 +3.2337618469e+01 3.2337618469e+01 0.0000000000e+00 0.0000e+00 -1.0000e+00
       21 -1    0    0  501  502 -0.0000000000e+00 -0.0000000000e+00 -1.2079584660e+02 1.2079584660e+02 0.0000000000e+00 0.0000e+00 -1.0000e+00
       25  2    1    2    0    0 +0.0000000000e+00 +0.0000000000e+00 -8.8458228133e+01 1.5313346507e+02 1.2500000000e+02 0.0000e+00 0.0000e+00
      -15  1    3    3    0    0 +4.2525719616e+01 +1.3393066660e+01 -9.7842833347e+01 1.0753691845e+02 1.7770000000e+00 0.0000e+00 -1.0000e+00
       15  1    3    3    0    0 -4.2525730990e+01 -1.3393069554e+01 +9.3846438871e+00 4.5596506205e+01 1.7770000000e+00 0.0000e+00 -1.0000e+00
       22  1    3    3    0    0 +1.1373948044e-05 +2.8939280658e-06 -3.8671621918e-05 4.0413312850e-05 0.0000000000e+00 0.0000e+00 1.0000e+00
<mgrwt>
<rscale>  2 0.12500000E+03</rscale>
<asrwt>0</asrwt>
<pdfrwt beam="1">  1       21 0.47555321E-02 0.12500000E+03</pdfrwt>
<pdfrwt beam="2">  1       21 0.17764095E-01 0.12500000E+03</pdfrwt>
<totfact> 0.84103360E+06</totfact>
</mgrwt>
</event>
<event>
 6      0 +4.1053447e-01 1.25000000e+02 7.54677100e-03 1.12640300e-01
       21 -1    0    0  502  501 +0.0000000000e+00 +0.0000000000e+00 +5.6260891768e+01 5.6260891768e+01 0.0000000000e+00 0.0000e+00 1.0000e+00
       21 -1    0    0  501  502 -0.0000000000e+00 -0.0000000000e+00 -6.9431000421e+01 6.9431000421e+01 0.0000000000e+00 0.0000e+00 1.0000e+00
       25  2    1    2    0    0 +0.0000000000e+00 +0.0000000000e+00 -1.3170108653e+01 1.2569189219e+02 1.2500000000e+02 0.0000e+00 0.0000e+00
      -15  1    3    3    0    0 -2.6281957641e+01 -4.1030158695e+01 +2.6268519382e+01 5.5384186006e+01 1.7770000000e+00 0.0000e+00 -1.0000e+00
       15  1    3    3    0    0 +3.0428040941e+01 +4.1898307589e+01 -4.0701956232e+01 6.5887334325e+01 1.7770000000e+00 0.0000e+00 -1.0000e+00
       22  1    3    3    0    0 -4.1460832991e+00 -8.6814889387e-01 +1.2633281964e+00 4.4203718573e+00 0.0000000000e+00 0.0000e+00 1.0000e+00
<mgrwt>
<rscale>  2 0.12500000E+03</rscale>
<asrwt>0</asrwt>
<pdfrwt beam="1">  1       21 0.82736606E-02 0.12500000E+03</pdfrwt>
<pdfrwt beam="2">  1       21 0.10210441E-01 0.12500000E+03</pdfrwt>
<totfact> 0.88867900E+06</totfact>
</mgrwt>
</event>
<event>
 6      0 +4.1053447e-01 1.25000000e+02 7.54677100e-03 1.12640300e-01
       21 -1    0    0  502  501 +0.0000000000e+00 +0.0000000000e+00 +2.9780057345e+00 2.9780057345e+00 0.0000000000e+00 0.0000e+00 -1.0000e+00
       21 -1    0    0  501  502 -0.0000000000e+00 -0.0000000000e+00 -1.3116999590e+03 1.3116999590e+03 0.0000000000e+00 0.0000e+00 -1.0000e+00
       25  2    1    2    0    0 +0.0000000000e+00 +0.0000000000e+00 -1.3087219533e+03 1.3146779648e+03 1.2500000000e+02 0.0000e+00 0.0000e+00
      -15  1    3    3    0    0 +2.7369066791e+01 -4.3412870409e+01 -2.8208941141e+02 2.8672519404e+02 1.7770000000e+00 0.0000e+00 -1.0000e+00
       15  1    3    3    0    0 -2.7572350663e+01 +4.3647352906e+01 -1.0239743378e+03 1.0252765130e+03 1.7770000000e+00 0.0000e+00 -1.0000e+00
       22  1    3    3    0    0 +2.0328387236e-01 -2.3448249684e-01 -2.6582007196e+00 2.6762543676e+00 0.0000000000e+00 0.0000e+00 -1.0000e+00
<mgrwt>
<rscale>  2 0.12500000E+03</rscale>
<asrwt>0</asrwt>
<pdfrwt beam="1">  1       21 0.43794286E-03 0.12500000E+03</pdfrwt>
<pdfrwt beam="2">  1       21 0.19289668E+00 0.12500000E+03</pdfrwt>
<totfact> 0.13684834E+06</totfact>
</mgrwt>
</event>
<event>
 6      0 +4.1053447e-01 1.25000000e+02 7.54677100e-03 1.12640300e-01
       21 -1    0    0  502  501 +0.0000000000e+00 +0.0000000000e+00 +7.2047984431e+01 7.2047984431e+01 0.0000000000e+00 0.0000e+00 -1.0000e+00
       21 -1    0    0  501  502 -0.0000000000e+00 -0.0000000000e+00 -5.4217339053e+01 5.4217339053e+01 0.0000000000e+00 0.0000e+00 -1.0000e+00
       25  2    1    2    0    0 +0.0000000000e+00 +0.0000000000e+00 +1.7830645378e+01 1.2626532348e+02 1.2500000000e+02 0.0000e+00 0.0000e+00
      -15  1    3    3    0    0 +4.2656119372e+01 -2.3552705762e+01 +4.8397913239e+01 6.8700729279e+01 1.7770000000e+00 0.0000e+00 -1.0000e+00
       15  1    3    3    0    0 -4.2661224489e+01 +2.3555657184e+01 -3.0573145585e+01 5.7556268296e+01 1.7770000000e+00 0.0000e+00 -1.0000e+00
       22  1    3    3    0    0 +5.1051177426e-03 -2.9514215683e-03 +5.8777244561e-03 8.3259090328e-03 0.0000000000e+00 0.0000e+00 1.0000e+00
<mgrwt>
<rscale>  2 0.12500000E+03</rscale>
<asrwt>0</asrwt>
<pdfrwt beam="1">  1       21 0.10595292E-01 0.12500000E+03</pdfrwt>
<pdfrwt beam="2">  1       21 0.79731381E-02 0.12500000E+03</pdfrwt>
<totfact> 0.88764012E+06</totfact>
</mgrwt>
</event>
<event>
 6      0 +4.1053447e-01 1.25000000e+02 7.54677100e-03 1.12640300e-01
       21 -1    0    0  502  501 +0.0000000000e+00 +0.0000000000e+00 +2.4382427150e+02 2.4382427150e+02 0.0000000000e+00 0.0000e+00 1.0000e+00
       21 -1    0    0  501  502 -0.0000000000e+00 -0.0000000000e+00 -1.6020759443e+01 1.6020759443e+01 0.0000000000e+00 0.0000e+00 1.0000e+00
       25  2    1    2    0    0 +0.0000000000e+00 +0.0000000000e+00 +2.2780351206e+02 2.5984503094e+02 1.2500000000e+02 0.0000e+00 0.0000e+00
      -15  1    3    3    0    0 -3.0644629321e+01 -3.2730731322e+01 +2.0433849811e+02 2.0920748940e+02 1.7770000000e+00 0.0000e+00 -1.0000e+00
       15  1    3    3    0    0 +3.0644636961e+01 +3.2730736336e+01 +2.3464997586e+01 5.0637522810e+01 1.7770000000e+00 0.0000e+00 -1.0000e+00
       22  1    3    3    0    0 -7.6395625700e-06 -5.0136517061e-06 +1.6381549736e-05 1.8757792820e-05 0.0000000000e+00 0.0000e+00 -1.0000e+00
<mgrwt>
<rscale>  2 0.12500000E+03</rscale>
<asrwt>0</asrwt>
<pdfrwt beam="1">  1       21 0.35856508E-01 0.12500000E+03</pdfrwt>
<pdfrwt beam="2">  1       21 0.23559942E-02 0.12500000E+03</pdfrwt>
<totfact> 0.68754073E+06</totfact>
</mgrwt>
</event>
<event>
 6      0 +4.1053447e-01 1.25000000e+02 7.54677100e-03 1.12640300e-01
       21 -1    0    0  502  501 +0.0000000000e+00 +0.0000000000e+00 +1.6824767236e+02 1.6824767236e+02 0.0000000000e+00 0.0000e+00 1.0000e+00
       21 -1    0    0  501  502 -0.0000000000e+00 -0.0000000000e+00 -2.3217260276e+01 2.3217260276e+01 0.0000000000e+00 0.0000e+00 1.0000e+00
       25  2    1    2    0    0 +0.0000000000e+00 +0.0000000000e+00 +1.4503041208e+02 1.9146493263e+02 1.2500000000e+02 0.0000e+00 0.0000e+00
      -15  1    3    3    0    0 -3.5154644126e+01 -7.3138496856e+00 -5.7937215460e+00 3.6415193796e+01 1.7770000000e+00 0.0000e+00 -1.0000e+00
       15  1    3    3    0    0 +3.5154651760e+01 +7.3138502399e+00 +1.5082413421e+02 1.5504973117e+02 1.7770000000e+00 0.0000e+00 -1.0000e+00
       22  1    3    3    0    0 -7.6342535996e-06 -5.5428782925e-07 -5.7700500971e-07 7.6760665572e-06 0.0000000000e+00 0.0000e+00 1.0000e+00
<mgrwt>
<rscale>  2 0.12500000E+03</rscale>
<asrwt>0</asrwt>
<pdfrwt beam="1">  1       21 0.24742304E-01 0.12500000E+03</pdfrwt>
<pdfrwt beam="2">  1       21 0.34143031E-02 0.12500000E+03</pdfrwt>
<totfact> 0.78079278E+06</totfact>
</mgrwt>
</event>
<event>
 6      0 +4.1053447e-01 1.25000000e+02 7.54677100e-03 1.12640300e-01
       21 -1    0    0  502  501 +0.0000000000e+00 +0.0000000000e+00 +7.7325023489e+01 7.7325023489e+01 0.0000000000e+00 0.0000e+00 -1.0000e+00
       21 -1    0    0  501  502 -0.0000000000e+00 -0.0000000000e+00 -5.0517281777e+01 5.0517281777e+01 0.0000000000e+00 0.0000e+00 -1.0000e+00
       25  2    1    2    0    0 +0.0000000000e+00 +0.0000000000e+00 +2.6807741712e+01 1.2784230527e+02 1.2500000000e+02 0.0000e+00 0.0000e+00
      -15  1    3    3    0    0 -2.0006624858e+01 +2.3477738878e+00 +7.3886590146e+01 7.6603936014e+01 1.7770000000e+00 0.0000e+00 1.0000e+00
       15  1    3    3    0    0 +2.0006646953e+01 -2.3477820215e+00 -4.7078932087e+01 5.1238282350e+01 1.7770000000e+00 0.0000e+00 1.0000e+00
       22  1    3    3    0    0 -2.2094781909e-05 +8.1337368822e-06 +8.3651855243e-05 8.6902071027e-05 0.0000000000e+00 0.0000e+00 1.0000e+00
<mgrwt>
<rscale>  2 0.12500000E+03</rscale>
<asrwt>0</asrwt>
<pdfrwt beam="1">  1       21 0.11371327E-01 0.12500000E+03</pdfrwt>
<pdfrwt beam="2">  1       21 0.74290120E-02 0.12500000E+03</pdfrwt>
<totfact> 0.88485438E+06</totfact>
</mgrwt>
</event>
<event>
 6      0 +4.1053447e-01 1.25000000e+02 7.54677100e-03 1.12640300e-01
       21 -1    0    0  502  501 +0.0000000000e+00 +0.0000000000e+00 +6.6801072369e+01 6.6801072369e+01 0.0000000000e+00 0.0000e+00 -1.0000e+00
       21 -1    0    0  501  502 -0.0000000000e+00 -0.0000000000e+00 -5.8475857669e+01 5.8475857669e+01 0.0000000000e+00 0.0000e+00 -1.0000e+00
       25  2    1    2    0    0 +0.0000000000e+00 +0.0000000000e+00 +8.3252146993e+00 1.2527693004e+02 1.2500000000e+02 0.0000e+00 0.0000e+00
      -15  1    3    3    0    0 -5.5995925601e+00 +5.7468977306e+01 +2.8070297978e+01 6.4227238357e+01 1.7770000000e+00 0.0000e+00 1.0000e+00
       15  1    3    3    0    0 +5.5995925885e+00 -5.7468977384e+01 -1.9745083320e+01 6.1049691588e+01 1.7770000000e+00 0.0000e+00 1.0000e+00
       22  1    3    3    0    0 -2.8399643927e-08 +7.7732518964e-08 +4.0756512483e-08 9.2249539780e-08 0.0000000000e+00 0.0000e+00 -1.0000e+00
<mgrwt>
<rscale>  2 0.12500000E+03</rscale>
<asrwt>0</asrwt>
<pdfrwt beam="1">  1       21 0.98236871E-02 0.12500000E+03</pdfrwt>
<pdfrwt beam="2">  1       21 0.85993908E-02 0.12500000E+03</pdfrwt>
<totfact> 0.88945748E+06</totfact>
</mgrwt>
</event>
<event>
 6      0 +4.1053447e-01 1.25000000e+02 7.54677100e-03 1.12640300e-01
       21 -1    0    0  502  501 +0.0000000000e+00 +0.0000000000e+00 +2.2378425474e+01 2.2378425474e+01 0.0000000000e+00 0.0000e+00 -1.0000e+00
       21 -1    0    0  501  502 -0.0000000000e+00 -0.0000000000e+00 -1.7455428241e+02 1.7455428241e+02 0.0000000000e+00 0.0000e+00 -1.0000e+00
       25  2    1    2    0    0 +0.0000000000e+00 +0.0000000000e+00 -1.5217585693e+02 1.9693270788e+02 1.2500000000e+02 0.0000e+00 0.0000e+00
      -15  1    3    3    0    0 +3.5574936825e+01 -5.0457845871e+01 -9.1158783231e+01 1.1011199675e+02 1.7770000000e+00 0.0000e+00 1.0000e+00
       15  1    3    3    0    0 -3.5571235061e+01 +5.0449475571e+01 -6.1007242300e+01 8.6807279022e+01 1.7770000000e+00 0.0000e+00 1.0000e+00
       22  1    3    3    0    0 -3.7017632921e-03 +8.3702998116e-03 -9.8313954959e-03 1.3432099903e-02 0.0000000000e+00 0.0000e+00 1.0000e+00
<mgrwt>
<rscale>  2 0.12500000E+03</rscale>
<asrwt>0</asrwt>
<pdfrwt beam="1">  1       21 0.32909449E-02 0.12500000E+03</pdfrwt>
<pdfrwt beam="2">  1       21 0.25669747E-01 0.12500000E+03</pdfrwt>
<totfact> 0.77268955E+06</totfact>
</mgrwt>
</event>
<event>
 6      0 +4.1053447e-01 1.25000000e+02 7.54677100e-03 1.12640300e-01
       21 -1    0    0  502  501 +0.0000000000e+00 +0.0000000000e+00 +1.8624397150e+02 1.8624397150e+02 0.0000000000e+00 0.0000e+00 1.0000e+00
       21 -1    0    0  501  502 -0.0000000000e+00 -0.0000000000e+00 -2.0973833239e+01 2.0973833239e+01 0.0000000000e+00 0.0000e+00 1.0000e+00
       25  2    1    2    0    0 +0.0000000000e+00 +0.0000000000e+00 +1.6527013826e+02 2.0721780474e+02 1.2500000000e+02 0.0000e+00 0.0000e+00
      -15  1    3    3    0    0 -6.0148396727e+01 -1.6677193479e+01 +8.7062780897e+01 1.0714030034e+02 1.7770000000e+00 0.0000e+00 1.0000e+00
       15  1    3    3    0    0 +6.0148396710e+01 +1.6677193471e+01 +7.8207357334e+01 1.0007750436e+02 1.7770000000e+00 0.0000e+00 1.0000e+00
       22  1    3    3    0    0 +1.7052142346e-08 +7.9093071218e-09 +2.4251428922e-08 3.0683293541e-08 0.0000000000e+00 0.0000e+00 -1.0000e+00
<mgrwt>
<rscale>  2 0.12500000E+03</rscale>
<asrwt>0</asrwt>
<pdfrwt beam="1">  1       21 0.27388818E-01 0.12500000E+03</pdfrwt>
<pdfrwt beam="2">  1       21 0.30843873E-02 0.12500000E+03</pdfrwt>
<totfact> 0.75778717E+06</totfact>
</mgrwt>
</event>
<event>
 6      0 +4.1053447e-01 1.25000000e+02 7.54677100e-03 1.12640300e-01
       21 -1    0    0  502  501 +0.0000000000e+00 +0.0000000000e+00 +4.8229121892e+02 4.8229121892e+02 0.0000000000e+00 0.0000e+00 1.0000e+00
       21 -1    0    0  501  502 -0.0000000000e+00 -0.0000000000e+00 -8.0993595710e+00 8.0993595710e+00 0.0000000000e+00 0.0000e+00 1.0000e+00
       25  2    1    2    0    0 +0.0000000000e+00 +0.0000000000e+00 +4.7419185935e+02 4.9039057850e+02 1.2500000000e+02 0.0000e+00 0.0000e+00
      -15  1    3    3    0    0 +2.3193265029e+01 +1.0738069112e+01 +4.6074357820e+02 4.6145534590e+02 1.7770000000e+00 0.0000e+00 -1.0000e+00
       15  1    3    3    0    0 -2.3193264830e+01 -1.0738069214e+01 +1.3448280343e+01 2.8935231761e+01 1.7770000000e+00 0.0000e+00 -1.0000e+00
       22  1    3    3    0    0 -1.9851226527e-07 +1.0187392645e-07 +6.8398324450e-07 7.1945708358e-07 0.0000000000e+00 0.0000e+00 1.0000e+00
<mgrwt>
<rscale>  2 0.12500000E+03</rscale>
<asrwt>0</asrwt>
<pdfrwt beam="1">  1       21 0.70925160E-01 0.12500000E+03</pdfrwt>
<pdfrwt beam="2">  1       21 0.11910826E-02 0.12500000E+03</pdfrwt>
<totfact> 0.46049351E+06</totfact>
</mgrwt>
</event>
<event>
 6      0 +4.1053447e-01 1.25000000e+02 7.54677100e-03 1.12640300e-01
       21 -1    0    0  502  501 +0.0000000000e+00 +0.0000000000e+00 +1.7749833156e+02 1.7749833156e+02 0.0000000000e+00 0.0000e+00 1.0000e+00
       21 -1    0    0  501  502 -0.0000000000e+00 -0.0000000000e+00 -2.2007249114e+01 2.2007249114e+01 0.0000000000e+00 0.0000e+00 1.0000e+00
       25  2    1    2    0    0 +0.0000000000e+00 +0.0000000000e+00 +1.5549108245e+02 1.9950558068e+02 1.2500000000e+02 0.0000e+00 0.0000e+00
      -15  1    3    3    0    0 -2.3834986546e+01 -5.5491114722e+01 +9.4571718847e+01 1.1222449880e+02 1.7770000000e+00 0.0000e+00 -1.0000e+00
       15  1    3    3    0    0 +2.2158978803e+01 +5.5710849802e+01 +6.1049490557e+01 8.5585729847e+01 1.7770000000e+00 0.0000e+00 -1.0000e+00
       22  1    3    3    0    0 +1.6760077426e+00 -2.1973507961e-01 -1.3012695941e-01 1.6953520235e+00 0.0000000000e+00 0.0000e+00 -1.0000e+00
<mgrwt>
<rscale>  2 0.12500000E+03</rscale>
<asrwt>0</asrwt>
<pdfrwt beam="1">  1       21 0.26102695E-01 0.12500000E+03</pdfrwt>
<pdfrwt beam="2">  1       21 0.32363603E-02 0.12500000E+03</pdfrwt>
<totfact> 0.76891083E+06</totfact>
</mgrwt>
</event>
<event>
 6      0 +4.1053447e-01 1.25000000e+02 7.54677100e-03 1.12640300e-01
       21 -1    0    0  502  501 +0.0000000000e+00 +0.0000000000e+00 +2.1973037288e+01 2.1973037288e+01 0.0000000000e+00 0.0000e+00 -1.0000e+00
       21 -1    0    0  501  502 -0.0000000000e+00 -0.0000000000e+00 -1.7777469490e+02 1.7777469490e+02 0.0000000000e+00 0.0000e+00 -1.0000e+00
       25  2    1    2    0    0 +0.0000000000e+00 +0.0000000000e+00 -1.5580165761e+02 1.9974773219e+02 1.2500000000e+02 0.0000e+00 0.0000e+00
      -15  1    3    3    0    0 -1.8373107889e+01 -5.6683225532e+01 -1.0790419486e+02 1.2327624324e+02 1.7770000000e+00 0.0000e+00 -1.0000e+00
       15  1    3    3    0    0 +1.8358987827e+01 +5.6643989300e+01 -4.7864195477e+01 7.6418145068e+01 1.7770000000e+00 0.0000e+00 -1.0000e+00
       22  1    3    3    0    0 +1.4120062033e-02 +3.9236231165e-02 -3.3267271963e-02 5.3343878484e-02 0.0000000000e+00 0.0000e+00 -1.0000e+00
<mgrwt>
<rscale>  2 0.12500000E+03</rscale>
<asrwt>0</asrwt>
<pdfrwt beam="1">  1       21 0.32313291E-02 0.12500000E+03</pdfrwt>
<pdfrwt beam="2">  1       21 0.26143337E-01 0.12500000E+03</pdfrwt>
<totfact> 0.76855702E+06</totfact>
</mgrwt>
</event>
<event>
 6      0 +4.1053447e-01 1.25000000e+02 7.54677100e-03 1.12640300e-01
       21 -1    0    0  502  501 +0.0000000000e+00 +0.0000000000e+00 +8.4647239504e+01 8.4647239504e+01 0.0000000000e+00 0.0000e+00 1.0000e+00
       21 -1    0    0  501  502 -0.0000000000e+00 -0.0000000000e+00 -4.6147399760e+01 4.6147399760e+01 0.0000000000e+00 0.0000e+00 1.0000e+00
       25  2    1    2    0    0 +0.0000000000e+00 +0.0000000000e+00 +3.8499839744e+01 1.3079463926e+02 1.2500000000e+02 0.0000e+00 0.0000e+00
      -15  1    3    3    0    0 -5.1424669581e+01 -2.8236523571e+01 -3.2234917633e+00 5.8782195715e+01 1.7770000000e+00 0.0000e+00 1.0000e+00
       15  1    3    3    0    0 +5.1424669580e+01 +2.8236523571e+01 +4.1723331506e+01 7.2012443549e+01 1.7770000000e+00 0.0000e+00 1.0000e+00
       22  1    3    3    0    0 +8.9213996668e-10 -2.4889909212e-10 +1.6107857424e-09 1.8580891222e-09 0.0000000000e+00 0.0000e+00 1.0000e+00
<mgrwt>
<rscale>  2 0.12500000E+03</rscale>
<asrwt>0</asrwt>
<pdfrwt beam="1">  1       21 0.12448124E-01 0.12500000E+03</pdfrwt>
<pdfrwt beam="2">  1       21 0.67863823E-02 0.12500000E+03</pdfrwt>
<totfact> 0.87953260E+06</totfact>
</mgrwt>
</event>
<event>
 6      0 +4.1053447e-01 1.25000000e+02 7.54677100e-03 1.12640300e-01
       21 -1    0    0  502  501 +0.0000000000e+00 +0.0000000000e+00 +5.4801145287e+01 5.4801145287e+01 0.0000000000e+00 0.0000e+00 -1.0000e+00
       21 -1    0    0  501  502 -0.0000000000e+00 -0.0000000000e+00 -7.1280444588e+01 7.1280444588e+01 0.0000000000e+00 0.0000e+00 -1.0000e+00
       25  2    1    2    0    0 +0.0000000000e+00 +0.0000000000e+00 -1.6479299301e+01 1.2608158988e+02 1.2500000000e+02 0.0000e+00 0.0000e+00
      -15  1    3    3    0    0 -2.3239292963e+01 +3.0133016691e+01 +4.1737319240e+01 5.6508627471e+01 1.7770000000e+00 0.0000e+00 -1.0000e+00
       15  1    3    3    0    0 +2.3234847535e+01 -3.0126671923e+01 -5.8204749331e+01 6.9558788624e+01 1.7770000000e+00 0.0000e+00 -1.0000e+00
       22  1    3    3    0    0 +4.4454279156e-03 -6.3447685198e-03 -1.1869208567e-02 1.4173779627e-02 0.0000000000e+00 0.0000e+00 1.0000e+00
<mgrwt>
<rscale>  2 0.12500000E+03</rscale>
<asrwt>0</asrwt>
<pdfrwt beam="1">  1       21 0.80589920E-02 0.12500000E+03</pdfrwt>
<pdfrwt beam="2">  1       21 0.10482418E-01 0.12500000E+03</pdfrwt>
<totfact> 0.88797033E+06</totfact>
</mgrwt>
</event>
<event>
 6      0 +4.1053447e-01 1.25000000e+02 7.54677100e-03 1.12640300e-01
       21 -1    0    0  502  501 +0.0000000000e+00 +0.0000000000e+00 +5.5281262131e+01 5.5281262131e+01 0.0000000000e+00 0.0000e+00 1.0000e+00
       21 -1    0    0  501  502 -0.0000000000e+00 -0.0000000000e+00 -7.0661375110e+01 7.0661375110e+01 0.0000000000e+00 0.0000e+00 1.0000e+00
       25  2    1    2    0    0 +0.0000000000e+00 +0.0000000000e+00 -1.5380112978e+01 1.2594263724e+02 1.2500000000e+02 0.0000e+00 0.0000e+00
      -15  1    3    3    0    0 +5.7163486507e+01 -1.7637364242e+01 -2.5835629893e+01 6.5187255718e+01 1.7770000000e+00 0.0000e+00 -1.0000e+00
       15  1    3    3    0    0 -5.7163485132e+01 +1.7637363186e+01 +1.0455516451e+01 6.0755379728e+01 1.7770000000e+00 0.0000e+00 -1.0000e+00
       22  1    3    3    0    0 -1.3748972507e-06 +1.0560657605e-06 +4.6486990396e-07 1.7949154209e-06 0.0000000000e+00 0.0000e+00 -1.0000e+00
<mgrwt>
<rscale>  2 0.12500000E+03</rscale>
<asrwt>0</asrwt>
<pdfrwt beam="1">  1       21 0.81295974E-02 0.12500000E+03</pdfrwt>
<pdfrwt beam="2">  1       21 0.10391379E-01 0.12500000E+03</pdfrwt>
<totfact> 0.88822151E+06</totfact>
</mgrwt>
</event>
<event>
 6      0 +4.1053447e-01 1.25000000e+02 7.54677100e-03 1.12640300e-01
       21 -1    0    0  502  501 +0.0000000000e+00 +0.0000000000e+00 +1.0637904747e+01 1.0637904747e+01 0.0000000000e+00 0.0000e+00 -1.0000e+00
       21 -1    0    0  501  502 -0.0000000000e+00 -0.0000000000e+00 -3.6720106948e+02 3.6720106948e+02 0.0000000000e+00 0.0000e+00 -1.0000e+00
       25  2    1    2    0    0 +0.0000000000e+00 +0.0000000000e+00 -3.5656316473e+02 3.7783897422e+02 1.2500000000e+02 0.0000e+00 0.0000e+00
      -15  1    3    3    0    0 +2.6255150885e+01 -3.4074245173e+01 -4.1332216607e+01 5.9681630261e+01 1.7770000000e+00 0.0000e+00 -1.0000e+00
       15  1    3    3    0    0 -2.6255150886e+01 +3.4074245174e+01 -3.1523094814e+02 3.1815734398e+02 1.7770000000e+00 0.0000e+00 -1.0000e+00
       22  1    3    3    0    0 +6.3178257422e-10 -4.9489146725e-10 -6.1512599137e-09 6.2033914362e-09 0.0000000000e+00 0.0000e+00 -1.0000e+00
<mgrwt>
<rscale>  2 0.12500000E+03</rscale>
<asrwt>0</asrwt>
<pdfrwt beam="1">  1       21 0.15643981E-02 0.12500000E+03</pdfrwt>
<pdfrwt beam="2">  1       21 0.54000147E-01 0.12500000E+03</pdfrwt>
<totfact> 0.55753801E+06</totfact>
</mgrwt>
</event>
<event>
 6      0 +4.1053447e-01 1.25000000e+02 7.54677100e-03 1.12640300e-01
       21 -1    0    0  502  501 +0.0000000000e+00 +0.0000000000e+00 +6.4189027661e+01 6.4189027661e+01 0.0000000000e+00 0.0000e+00 1.0000e+00
       21 -1    0    0  501  502 -0.0000000000e+00 -0.0000000000e+00 -6.0855416297e+01 6.0855416297e+01 0.0000000000e+00 0.0000e+00 1.0000e+00
       25  2    1    2    0    0 +0.0000000000e+00 +0.0000000000e+00 +3.3336113635e+00 1.2504444396e+02 1.2500000000e+02 0.0000e+00 0.0000e+00
      -15  1    3    3    0    0 -6.0059013029e+01 +6.0713806911e+00 -1.4417232227e+01 6.2088332428e+01 1.7770000000e+00 0.0000e+00 1.0000e+00
       15  1    3    3    0    0 +6.0064105558e+01 -6.0699569407e+00 +1.7751216133e+01 6.2950810614e+01 1.7770000000e+00 0.0000e+00 1.0000e+00
       22  1    3    3    0    0 -5.0925294829e-03 -1.4237503985e-03 -3.7254301606e-04 5.3009159615e-03 0.0000000000e+00 0.0000e+00 -1.0000e+00
<mgrwt>
<rscale>  2 0.12500000E+03</rscale>
<asrwt>0</asrwt>
<pdfrwt beam="1">  1       21 0.94395629E-02 0.12500000E+03</pdfrwt>
<pdfrwt beam="2">  1       21 0.89493259E-02 0.12500000E+03</pdfrwt>
<totfact> 0.88992844E+06</totfact>
</mgrwt>
</event>
<event>
 6      0 +4.1053447e-01 1.25000000e+02 7.54677100e-03 1.12640300e-01
       21 -1    0    0  502  501 +0.0000000000e+00 +0.0000000000e+00 +6.1967254652e+00 6.1967254652e+00 0.0000000000e+00 0.0000e+00 1.0000e+00
       21 -1    0    0  501  502 -0.0000000000e+00 -0.0000000000e+00 -6.3037325470e+02 6.3037325470e+02 0.0000000000e+00 0.0000e+00 1.0000e+00
       25  2    1    2    0    0 +0.0000000000e+00 +0.0000000000e+00 -6.2417652923e+02 6.3656998016e+02 1.2500000000e+02 0.0000e+00 0.0000e+00
      -15  1    3    3    0    0 +2.9388611539e+00 -5.9527613833e+01 -2.1809877625e+02 2.2610264847e+02 1.7770000000e+00 0.0000e+00 1.0000e+00
       15  1    3    3    0    0 -3.2115858111e+00 +2.9856139323e+01 -2.1715108898e+02 2.1922467131e+02 1.7770000000e+00 0.0000e+00 1.0000e+00
       22  1    3    3    0    0 +2.7272465722e-01 +2.9671474510e+01 -1.8892666401e+02 1.9124266039e+02 0.0000000000e+00 0.0000e+00 1.0000e+00
<mgrwt>
<rscale>  2 0.12500000E+03</rscale>
<asrwt>0</asrwt>
<pdfrwt beam="1">  1       21 0.91128368E-03 0.12500000E+03</pdfrwt>
<pdfrwt beam="2">  1       21 0.92701896E-01 0.12500000E+03</pdfrwt>
<totfact> 0.36305363E+06</totfact>
</mgrwt>
</event>
<event>
 6      0 +4.1053447e-01 1.25000000e+02 7.54677100e-03 1.12640300e-01
       21 -1    0    0  502  501 +0.0000000000e+00 +0.0000000000e+00 +4.6749830224e+01 4.6749830224e+01 0.0000000000e+00 0.0000e+00 -1.0000e+00
       21 -1    0    0  501  502 -0.0000000000e+00 -0.0000000000e+00 -8.3556453174e+01 8.3556453174e+01 0.0000000000e+00 0.0000e+00 -1.0000e+00
       25  2    1    2    0    0 +0.0000000000e+00 +0.0000000000e+00 -3.6806622950e+01 1.3030628340e+02 1.2500000000e+02 0.0000e+00 0.0000e+00
      -15  1    3    3    0    0 -8.0194604324e+00 -5.1422514848e+01 -5.4431990777e+01 7.5329848851e+01 1.7770000000e+00 0.0000e+00 -1.0000e+00
       15  1    3    3    0    0 +8.0189994257e+00 +5.1421911677e+01 +1.7625209163e+01 5.4975658972e+01 1.7770000000e+00 0.0000e+00 -1.0000e+00
       22  1    3    3    0    0 +4.6100666093e-04 +6.0317125370e-04 +1.5866473196e-04 7.7557539923e-04 0.0000000000e+00 0.0000e+00 -1.0000e+00
<mgrwt>
<rscale>  2 0.12500000E+03</rscale>
<asrwt>0</asrwt>
<pdfrwt beam="1">  1       21 0.68749751E-02 0.12500000E+03</pdfrwt>
<pdfrwt beam="2">  1       21 0.12287714E-01 0.12500000E+03</pdfrwt>
<totfact> 0.88042037E+06</totfact>
</mgrwt>
</event>
<event>
 6      0 +4.1053447e-01 1.25000000e+02 7.54677100e-03 1.12640300e-01
       21 -1    0    0  502  501 +0.0000000000e+00 +0.0000000000e+00 +1.3545254335e+02 1.3545254335e+02 0.0000000000e+00 0.0000e+00 1.0000e+00
       21 -1    0    0  501  502 -0.0000000000e+00 -0.0000000000e+00 -2.8838513501e+01 2.8838513501e+01 0.0000000000e+00 0.0000e+00 1.0000e+00
       25  2    1    2    0    0 +0.0000000000e+00 +0.0000000000e+00 +1.0661402984e+02 1.6429105685e+02 1.2500000000e+02 0.0000e+00 0.0000e+00
      -15  1    3    3    0    0 -4.9381088643e+01 -1.6750357742e+01 +8.0818122447e+00 5.2797157293e+01 1.7770000000e+00 0.0000e+00 -1.0000e+00
       15  1    3    3    0    0 +4.9381218099e+01 +1.6749748172e+01 +9.8530080926e+01 1.1149167386e+02 1.7770000000e+00 0.0000e+00 -1.0000e+00
       22  1    3    3    0    0 -1.2945539763e-04 +6.0957059510e-04 +2.1366613925e-03 2.2256812253e-03 0.0000000000e+00 0.0000e+00 -1.0000e+00
<mgrwt>
<rscale>  2 0.12500000E+03</rscale>
<asrwt>0</asrwt>
<pdfrwt beam="1">  1       21 0.19919491E-01 0.12500000E+03</pdfrwt>
<pdfrwt beam="2">  1       21 0.42409579E-02 0.12500000E+03</pdfrwt>
<totfact> 0.82281225E+06</totfact>
</mgrwt>
</event>
<event>
 6      0 +4.1053447e-01 1.25000000e+02 7.54677100e-03 1.12640300e-01
       21 -1    0    0  502  501 +0.0000000000e+00 +0.0000000000e+00 +6.7204367197e+01 6.7204367197e+01 0.0000000000e+00 0.0000e+00 -1.0000e+00
       21 -1    0    0  501  502 -0.0000000000e+00 -0.0000000000e+00 -5.8124942811e+01 5.8124942811e+01 0.0000000000e+00 0.0000e+00 -1.0000e+00
       25  2    1    2    0    0 +0.0000000000e+00 +0.0000000000e+00 +9.0794243864e+00 1.2532931001e+02 1.2500000000e+02 0.0000e+00 0.0000e+00
      -15  1    3    3    0    0 -3.9153671528e+00 -5.0326290636e+01 +4.1447375687e+01 6.5338413735e+01 1.7770000000e+00 0.0000e+00 -1.0000e+00
       15  1    3    3    0    0 +3.9153669503e+00 +5.0326290393e+01 -3.2367951045e+01 5.9990895867e+01 1.7770000000e+00 0.0000e+00 -1.0000e+00
       22  1    3    3    0    0 +2.0244523282e-07 +2.4324358576e-07 -2.5523464797e-07 4.0656640273e-07 0.0000000000e+00 0.0000e+00 -1.0000e+00
<mgrwt>
<rscale>  2 0.12500000E+03</rscale>
<asrwt>0</asrwt>
<pdfrwt beam="1">  1       21 0.98829952E-02 0.12500000E+03</pdfrwt>
<pdfrwt beam="2">  1       21 0.85477857E-02 0.12500000E+03</pdfrwt>
<totfact> 0.88935672E+06</totfact>
</mgrwt>
</event>
<event>
 6      0 +4.1053447e-01 1.25000000e+02 7.54677100e-03 1.12640300e-01
       21 -1    0    0  502  501 +0.0000000000e+00 +0.0000000000e+00 +6.5580774991e+02 6.5580774991e+02 0.0000000000e+00 0.0000e+00 -1.0000e+00
       21 -1    0    0  501  502 -0.0000000000e+00 -0.0000000000e+00 -5.9563949962e+00 5.9563949962e+00 0.0000000000e+00 0.0000e+00 -1.0000e+00
       25  2    1    2    0    0 +0.0000000000e+00 +0.0000000000e+00 +6.4985135491e+02 6.6176414490e+02 1.2500000000e+02 0.0000e+00 0.0000e+00
      -15  1    3    3    0    0 +3.6021046660e+01 +2.6518850345e+01 +9.4069211401e+01 1.0417744232e+02 1.7770000000e+00 0.0000e+00 -1.0000e+00
       15  1    3    3    0    0 -3.4763881242e+01 -2.5477285583e+01 +5.2972059635e+02 5.3147407034e+02 1.7770000000e+00 0.0000e+00 -1.0000e+00
       22  1    3    3    0    0 -1.2571654181e+00 -1.0415647622e+00 +2.6061547222e+01 2.6112632300e+01 0.0000000000e+00 0.0000e+00 1.0000e+00
<mgrwt>
<rscale>  2 0.12500000E+03</rscale>
<asrwt>0</asrwt>
<pdfrwt beam="1">  1       21 0.96442266E-01 0.12500000E+03</pdfrwt>
<pdfrwt beam="2">  1       21 0.87594089E-03 0.12500000E+03</pdfrwt>
<totfact> 0.34915131E+06</totfact>
</mgrwt>
</event>
<event>
 6      0 +4.1053447e-01 1.25000000e+02 7.54677100e-03 1.12640300e-01
       21 -1    0    0  502  501 +0.0000000000e+00 +0.0000000000e+00 +2.4602068537e+01 2.4602068537e+01 0.0000000000e+00 0.0000e+00 -1.0000e+00
       21 -1    0    0  501  502 -0.0000000000e+00 -0.0000000000e+00 -1.5877729932e+02 1.5877729932e+02 0.0000000000e+00 0.0000e+00 -1.0000e+00
       25  2    1    2    0    0 +0.0000000000e+00 +0.0000000000e+00 -1.3417523079e+02 1.8337936786e+02 1.2500000000e+02 0.0000e+00 0.0000e+00
      -15  1    3    3    0    0 +4.6483039266e+01 -3.9046731357e+01 -5.4788842705e+01 8.1794224631e+01 1.7770000000e+00 0.0000e+00 1.0000e+00
       15  1    3    3    0    0 -4.7560727726e+01 +3.9820814960e+01 -7.7688956178e+01 9.9430637969e+01 1.7770000000e+00 0.0000e+00 1.0000e+00
       22  1    3    3    0    0 +1.0776884605e+00 -7.7408360371e-01 -1.6974319107e+00 2.1545052645e+00 0.0000000000e+00 0.0000e+00 -1.0000e+00
<mgrwt>
<rscale>  2 0.12500000E+03</rscale>
<asrwt>0</asrwt>
<pdfrwt beam="1">  1       21 0.36179514E-02 0.12500000E+03</pdfrwt>
<pdfrwt beam="2">  1       21 0.23349602E-01 0.12500000E+03</pdfrwt>
<totfact> 0.79291925E+06</totfact>
</mgrwt>
</event>
<event>
 6      0 +4.1053447e-01 1.25000000e+02 7.54677100e-03 1.12640300e-01
       21 -1    0    0  502  501 +0.0000000000e+00 +0.0000000000e+00 +9.9506478686e+00 9.9506478686e+00 0.0000000000e+00 0.0000e+00 1.0000e+00
       21 -1    0    0  501  502 -0.0000000000e+00 -0.0000000000e+00 -3.9256237901e+02 3.9256237901e+02 0.0000000000e+00 0.0000e+00 1.0000e+00
       25  2    1    2    0    0 +0.0000000000e+00 +0.0000000000e+00 -3.8261173114e+02 4.0251302688e+02 1.2500000000e+02 0.0000e+00 0.0000e+00
      -15  1    3    3    0    0 -5.9706529609e+01 -1.5669867328e+01 -1.6030613605e+02 1.7178949154e+02 1.7770000000e+00 0.0000e+00 -1.0000e+00
       15  1    3    3    0    0 +5.9706529605e+01 +1.5669867320e+01 -2.2230559505e+02 2.3072353529e+02 1.7770000000e+00 0.0000e+00 -1.0000e+00
       22  1    3    3    0    0 +4.1526711036e-09 +7.6141258018e-09 -2.0116770828e-08 2.1906712614e-08 0.0000000000e+00 0.0000e+00 -1.0000e+00
<mgrwt>
<rscale>  2 0.12500000E+03</rscale>
<asrwt>0</asrwt>
<pdfrwt beam="1">  1       21 0.14633307E-02 0.12500000E+03</pdfrwt>
<pdfrwt beam="2">  1       21 0.57729755E-01 0.12500000E+03</pdfrwt>
<totfact> 0.53424424E+06</totfact>
</mgrwt>
</event>
<event>
 6      0 +4.1053447e-01 1.25000000e+02 7.54677100e-03 1.12640300e-01
       21 -1    0    0  502  501 +0.0000000000e+00 +0.0000000000e+00 +3.4018843546e+02 3.4018843546e+02 0.0000000000e+00 0.0000e+00 1.0000e+00
       21 -1    0    0  501  502 -0.0000000000e+00 -0.0000000000e+00 -1.1482606676e+01 1.1482606676e+01 0.0000000000e+00 0.0000e+00 1.0000e+00
       25  2    1    2    0    0 +0.0000000000e+00 +0.0000000000e+00 +3.2870582879e+02 3.5167104214e+02 1.2500000000e+02 0.0000e+00 0.0000e+00
      -15  1    3    3    0    0 -6.9577462878e+00 +4.5125739789e+01 +2.8431694475e+02 2.8796531984e+02 1.7770000000e+00 0.0000e+00 -1.0000e+00
       15  1    3    3    0    0 +6.9536799212e+00 -4.5104722389e+01 +4.4354966799e+01 6.3665614384e+01 1.7770000000e+00 0.0000e+00 -1.0000e+00
       22  1    3    3    0    0 +4.0663666089e-03 -2.1017400069e-02 +3.3917243822e-02 4.0107927790e-02 0.0000000000e+00 0.0000e+00 -1.0000e+00
<mgrwt>
<rscale>  2 0.12500000E+03</rscale>
<asrwt>0</asrwt>
<pdfrwt beam="1">  1       21 0.50027705E-01 0.12500000E+03</pdfrwt>
<pdfrwt beam="2">  1       21 0.16886188E-02 0.12500000E+03</pdfrwt>
<totfact> 0.58358054E+06</totfact>
</mgrwt>
</event>
<event>
 6      0 +4.1053447e-01 1.25000000e+02 7.54677100e-03 1.12640300e-01
       21 -1    0    0  502  501 +0.0000000000e+00 +0.0000000000e+00 +3.2353306677e+02 3.2353306677e+02 0.0000000000e+00 0.0000e+00 1.0000e+00
       21 -1    0    0  501  502 -0.0000000000e+00 -0.0000000000e+00 -1.2073727236e+01 1.2073727236e+01 0.0000000000e+00 0.0000e+00 1.0000e+00
       25  2    1    2    0    0 +0.0000000000e+00 +0.0000000000e+00 +3.1145933953e+02 3.3560679400e+02 1.2500000000e+02 0.0000e+00 0.0000e+00
      -15  1    3    3    0    0 -1.6304707923e+01 +4.7516223249e+01 +5.6011372824e+01 7.5259993270e+01 1.7770000000e+00 0.0000e+00 1.0000e+00
       15  1    3    3    0    0 +1.6304707972e+01 -4.7516223339e+01 +2.5544794164e+02 2.6034677566e+02 1.7770000000e+00 0.0000e+00 1.0000e+00
       22  1    3    3    0    0 -4.9000670524e-08 +9.0065817631e-08 +2.5082401655e-05 2.5082611221e-05 0.0000000000e+00 0.0000e+00 -1.0000e+00
<mgrwt>
<rscale>  2 0.12500000E+03</rscale>
<asrwt>0</asrwt>
<pdfrwt beam="1">  1       21 0.47578386E-01 0.12500000E+03</pdfrwt>
<pdfrwt beam="2">  1       21 0.17755483E-02 0.12500000E+03</pdfrwt>
<totfact> 0.60026752E+06</totfact>
</mgrwt>
</event>
<event>
 6      0 +4.1053447e-01 1.25000000e+02 7.54677100e-03 1.12640300e-01
       21 -1    0    0  502  501 +0.0000000000e+00 +0.0000000000e+00 +1.0555674381e+01 1.0555674381e+01 0.0000000000e+00 0.0000e+00 1.0000e+00
       21 -1    0    0  501  502 -0.0000000000e+00 -0.0000000000e+00 -3.7006162364e+02 3.7006162364e+02 0.0000000000e+00 0.0000e+00 1.0000e+00
       25  2    1    2    0    0 +0.0000000000e+00 +0.0000000000e+00 -3.5950594926e+02 3.8061729803e+02 1.2500000000e+02 0.0000e+00 0.0000e+00
      -15  1    3    3    0    0 -4.3396375326e+01 +1.9608500351e+00 -3.1647038304e+02 3.1944287657e+02 1.7770000000e+00 0.0000e+00 -1.0000e+00
       15  1    3    3    0    0 +4.3396364882e+01 -1.9608529092e+00 -4.3035493918e+01 6.1174348341e+01 1.7770000000e+00 0.0000e+00 -1.0000e+00
       22  1    3    3    0    0 +1.0443797018e-05 +2.8741479968e-06 -7.2230743946e-05 7.3038441891e-05 0.0000000000e+00 0.0000e+00 -1.0000e+00
<mgrwt>
<rscale>  2 0.12500000E+03</rscale>
<asrwt>0</asrwt>
<pdfrwt beam="1">  1       21 0.15523045E-02 0.12500000E+03</pdfrwt>
<pdfrwt beam="2">  1       21 0.54420845E-01 0.12500000E+03</pdfrwt>
<totfact> 0.55485072E+06</totfact>
</mgrwt>
</event>
<event>
 6      0 +4.1053447e-01 1.25000000e+02 7.54677100e-03 1.12640300e-01
       21 -1    0    0  502  501 +0.0000000000e+00 +0.0000000000e+00 +5.3968754264e+01 5.3968754264e+01 0.0000000000e+00 0.0000e+00 -1.0000e+00
       21 -1    0    0  501  502 -0.0000000000e+00 -0.0000000000e+00 -7.2379843732e+01 7.2379843732e+01 0.0000000000e+00 0.0000e+00 -1.0000e+00
       25  2    1    2    0    0 +0.0000000000e+00 +0.0000000000e+00 -1.8411089468e+01 1.2634859800e+02 1.2500000000e+02 0.0000e+00 0.0000e+00
      -15  1    3    3    0    0 +5.3754780257e+01 -2.6663875601e+01 -2.4247139098e+01 6.4742722727e+01 1.7770000000e+00 0.0000e+00 -1.0000e+00
       15  1    3    3    0    0 -5.4334419335e+01 +2.6737966094e+01 +6.2278722658e+00 6.0902315862e+01 1.7770000000e+00 0.0000e+00 -1.0000e+00
       22  1    3    3    0    0 +5.7963907858e-01 -7.4090493006e-02 -3.9182263512e-01 7.0355940756e-01 0.0000000000e+00 0.0000e+00 -1.0000e+00
<mgrwt>
<rscale>  2 0.12500000E+03</rscale>
<asrwt>0</asrwt>
<pdfrwt beam="1">  1       21 0.79365816E-02 0.12500000E+03</pdfrwt>
<pdfrwt beam="2">  1       21 0.10644095E-01 0.12500000E+03</pdfrwt>
<totfact> 0.88749107E+06</totfact>
</mgrwt>
</event>
<event>
 6      0 +4.1053447e-01 1.25000000e+02 7.54677100e-03 1.12640300e-01
       21 -1    0    0  502  501 +0.0000000000e+00 +0.0000000000e+00 +1.4469570919e+01 1.4469570919e+01 0.0000000000e+00 0.0000e+00 -1.0000e+00
       21 -1    0    0  501  502 -0.0000000000e+00 -0.0000000000e+00 -2.6996308474e+02 2.6996308474e+02 0.0000000000e+00 0.0000e+00 -1.0000e+00
       25  2    1    2    0    0 +0.0000000000e+00 +0.0000000000e+00 -2.5549351382e+02 2.8443265566e+02 1.2500000000e+02 0.0000e+00 0.0000e+00
      -15  1    3    3    0    0 +5.3491264165e+01 -1.3042915954e+01 -1.9492663741e+02 2.0256106413e+02 1.7770000000e+00 0.0000e+00 1.0000e+00
       15  1    3    3    0    0 -5.3491349884e+01 +1.3042936530e+01 -6.0566715681e+01 8.1871408215e+01 1.7770000000e+00 0.0000e+00 1.0000e+00
       22  1    3    3    0    0 +8.5718738121e-05 -2.0576544034e-05 -1.6071690679e-04 1.8330581103e-04 0.0000000000e+00 0.0000e+00 -1.0000e+00
<mgrwt>
<rscale>  2 0.12500000E+03</rscale>
<asrwt>0</asrwt>
<pdfrwt beam="1">  1       21 0.21278784E-02 0.12500000E+03</pdfrwt>
<pdfrwt beam="2">  1       21 0.39700448E-01 0.12500000E+03</pdfrwt>
<totfact> 0.65764828E+06</totfact>
</mgrwt>
</event>
<event>
 6      0 +4.1053447e-01 1.25000000e+02 7.54677100e-03 1.12640300e-01
       21 -1    0    0  502  501 +0.0000000000e+00 +0.0000000000e+00 +1.3000972469e+01 1.3000972469e+01 0.0000000000e+00 0.0000e+00 1.0000e+00
       21 -1    0    0  501  502 -0.0000000000e+00 -0.0000000000e+00 -3.0045829337e+02 3.0045829337e+02 0.0000000000e+00 0.0000e+00 1.0000e+00
       25  2    1    2    0    0 +0.0000000000e+00 +0.0000000000e+00 -2.8745732090e+02 3.1345926583e+02 1.2500000000e+02 0.0000e+00 0.0000e+00
      -15  1    3    3    0    0 -3.0852597803e+01 +2.5960363246e+01 -2.4060595634e+01 4.6988224506e+01 1.7770000000e+00 0.0000e+00 1.0000e+00
       15  1    3    3    0    0 +3.0852594402e+01 -2.5960361006e+01 -2.6339670205e+02 2.6647101775e+02 1.7770000000e+00 0.0000e+00 1.0000e+00
       22  1    3    3    0    0 +3.4007445442e-06 -2.2406830196e-06 -2.3257650407e-05 2.3611523168e-05 0.0000000000e+00 0.0000e+00 -1.0000e+00
<mgrwt>
<rscale>  2 0.12500000E+03</rscale>
<asrwt>0</asrwt>
<pdfrwt beam="1">  1       21 0.19119080E-02 0.12500000E+03</pdfrwt>
<pdfrwt beam="2">  1       21 0.44185036E-01 0.12500000E+03</pdfrwt>
<totfact> 0.62428358E+06</totfact>
</mgrwt>
</event>
<event>
 6      0 +4.1053447e-01 1.25000000e+02 7.54677100e-03 1.12640300e-01
       21 -1    0    0  502  501 +0.0000000000e+00 +0.0000000000e+00 +1.6174785333e+01 1.6174785333e+01 0.0000000000e+00 0.0000e+00 -1.0000e+00
       21 -1    0    0  501  502 -0.0000000000e+00 -0.0000000000e+00 -2.4150243232e+02 2.4150243232e+02 0.0000000000e+00 0.0000e+00 -1.0000e+00
       25  2    1    2    0    0 +0.0000000000e+00 +0.0000000000e+00 -2.2532764698e+02 2.5767721765e+02 1.2500000000e+02 0.0000e+00 0.0000e+00
      -15  1    3    3    0    0 -1.1353695095e+00 +2.7146612537e+01 -2.2826066772e+02 2.2987891986e+02 1.7770000000e+00 0.0000e+00 1.0000e+00
       15  1    3    3    0    0 +1.1739940788e+00 -2.7194486234e+01 +3.2542892910e+00 2.7471193483e+01 1.7770000000e+00 0.0000e+00 1.0000e+00
       22  1    3    3    0    0 -3.8624569356e-02 +4.7873697325e-02 -3.2126853218e-01 3.2710429227e-01 0.0000000000e+00 0.0000e+00 -1.0000e+00
<mgrwt>
<rscale>  2 0.12500000E+03</rscale>
<asrwt>0</asrwt>
<pdfrwt beam="1">  1       21 0.23786451E-02 0.12500000E+03</pdfrwt>
<pdfrwt beam="2">  1       21 0.35515061E-01 0.12500000E+03</pdfrwt>
<totfact> 0.69026340E+06</totfact>
</mgrwt>
</event>
<event>
 6      0 +4.1053447e-01 1.25000000e+02 7.54677100e-03 1.12640300e-01
       21 -1    0    0  502  501 +0.0000000000e+00 +0.0000000000e+00 +2.0191742742e+01 2.0191742742e+01 0.0000000000e+00 0.0000e+00 1.0000e+00
       21 -1    0    0  501  502 -0.0000000000e+00 -0.0000000000e+00 -1.9345779361e+02 1.9345779361e+02 0.0000000000e+00 0.0000e+00 1.0000e+00
       25  2    1    2    0    0 +0.0000000000e+00 +0.0000000000e+00 -1.7326605087e+02 2.1364953635e+02 1.2500000000e+02 0.0000e+00 0.0000e+00
      -15  1    3    3    0    0 -5.1355994714e+01 +2.6340639087e+01 -4.5761256074e+01 7.3678475466e+01 1.7770000000e+00 0.0000e+00 1.0000e+00
       15  1    3    3    0    0 +5.1355994525e+01 -2.6340638968e+01 -1.2750479426e+02 1.3997106031e+02 1.7770000000e+00 0.0000e+00 1.0000e+00
       22  1    3    3    0    0 +1.8842377407e-07 -1.1922519264e-07 -5.4041731143e-07 5.8461015701e-07 0.0000000000e+00 0.0000e+00 -1.0000e+00
<mgrwt>
<rscale>  2 0.12500000E+03</rscale>
<asrwt>0</asrwt>
<pdfrwt beam="1">  1       21 0.29693740E-02 0.12500000E+03</pdfrwt>
<pdfrwt beam="2">  1       21 0.28449675E-01 0.12500000E+03</pdfrwt>
<totfact> 0.74872025E+06</totfact>
</mgrwt>
</event>
<event>
 6      0 +4.1053447e-01 1.25000000e+02 7.54677100e-03 1.12640300e-01
       21 -1    0    0  502  501 +0.0000000000e+00 +0.0000000000e+00 +8.8207218612e+01 8.8207218612e+01 0.0000000000e+00 0.0000e+00 -1.0000e+00
       21 -1    0    0  501  502 -0.0000000000e+00 -0.0000000000e+00 -4.4284924312e+01 4.4284924312e+01 0.0000000000e+00 0.0000e+00 -1.0000e+00
       25  2    1    2    0    0 +0.0000000000e+00 +0.0000000000e+00 +4.3922294300e+01 1.3249214292e+02 1.2500000000e+02 0.0000e+00 0.0000e+00
      -15  1    3    3    0    0 +3.1869333018e+01 +1.9060602045e+01 +7.5213167024e+01 8.3899577830e+01 1.7770000000e+00 0.0000e+00 1.0000e+00
       15  1    3    3    0    0 -3.1869332800e+01 -1.9060601977e+01 -3.1290872513e+01 4.8592564786e+01 1.7770000000e+00 0.0000e+00 1.0000e+00
       22  1    3    3    0    0 -2.1838911418e-07 -6.7585704804e-08 -2.0871476236e-07 3.0955368633e-07 0.0000000000e+00 0.0000e+00 -1.0000e+00
<mgrwt>
<rscale>  2 0.12500000E+03</rscale>
<asrwt>0</asrwt>
<pdfrwt beam="1">  1       21 0.12971650E-01 0.12500000E+03</pdfrwt>
<pdfrwt beam="2">  1       21 0.65124888E-02 0.12500000E+03</pdfrwt>
<totfact> 0.87648343E+06</totfact>
</mgrwt>
</event>
<event>
 6      0 +4.1053447e-01 1.25000000e+02 7.54677100e-03 1.12640300e-01
       21 -1    0    0  502  501 +0.0000000000e+00 +0.0000000000e+00 +8.5152542132e+01 8.5152542132e+01 0.0000000000e+00 0.0000e+00 -1.0000e+00
       21 -1    0    0  501  502 -0.0000000000e+00 -0.0000000000e+00 -4.5873557057e+01 4.5873557057e+01 0.0000000000e+00 0.0000e+00 -1.0000e+00
       25  2    1    2    0    0 +0.0000000000e+00 +0.0000000000e+00 +3.9278985075e+01 1.3102609919e+02 1.2500000000e+02 0.0000e+00 0.0000e+00
      -15  1    3    3    0    0 +1.0387870404e+01 +4.9104777346e+00 +8.4009000484e+01 8.4809731366e+01 1.7770000000e+00 0.0000e+00 -1.0000e+00
       15  1    3    3    0    0 -1.0387867316e+01 -4.9104766107e+00 -4.4730005872e+01 4.6216357734e+01 1.7770000000e+00 0.0000e+00 -1.0000e+00
       22  1    3    3    0    0 -3.0881754930e-06 -1.1238789619e-06 -9.5374627276e-06 1.0087771165e-05 0.0000000000e+00 0.0000e+00 -1.0000e+00
<mgrwt>
<rscale>  2 0.12500000E+03</rscale>
<asrwt>0</asrwt>
<pdfrwt beam="1">  1       21 0.12522433E-01 0.12500000E+03</pdfrwt>
<pdfrwt beam="2">  1       21 0.67461113E-02 0.12500000E+03</pdfrwt>
<totfact> 0.87911363E+06</totfact>
</mgrwt>
</event>
<event>
 6      0 +4.1053447e-01 1.25000000e+02 7.54677100e-03 1.12640300e-01
       21 -1    0    0  502  501 +0.0000000000e+00 +0.0000000000e+00 +2.2791733047e+02 2.2791733047e+02 0.0000000000e+00 0.0000e+00 1.0000e+00
       21 -1    0    0  501  502 -0.0000000000e+00 -0.0000000000e+00 -1.7138889754e+01 1.7138889754e+01 0.0000000000e+00 0.0000e+00 1.0000e+00
       25  2    1    2    0    0 +0.0000000000e+00 +0.0000000000e+00 +2.1077844072e+02 2.4505622023e+02 1.2500000000e+02 0.0000e+00 0.0000e+00
      -15  1    3    3    0    0 -3.5131644838e+01 +5.0159489667e+01 +8.1148900347e+01 1.0167845706e+02 1.7770000000e+00 0.0000e+00 -1.0000e+00
       15  1    3    3    0    0 +3.5131643802e+01 -5.0159483732e+01 +1.2962953836e+02 1.4337775682e+02 1.7770000000e+00 0.0000e+00 -1.0000e+00
       22  1    3    3    0    0 +1.0359809989e-06 -5.9348368231e-06 +2.0013289088e-06 6.3482960035e-06 0.0000000000e+00 0.0000e+00 -1.0000e+00
<mgrwt>
<rscale>  2 0.12500000E+03</rscale>
<asrwt>0</asrwt>
<pdfrwt beam="1">  1       21 0.33517253E-01 0.12500000E+03</pdfrwt>
<pdfrwt beam="2">  1       21 0.25204251E-02 0.12500000E+03</pdfrwt>
<totfact> 0.70643020E+06</totfact>
</mgrwt>
</event>
<event>
 6      0 +4.1053447e-01 1.25000000e+02 7.54677100e-03 1.12640300e-01
       21 -1    0    0  502  501 +0.0000000000e+00 +0.0000000000e+00 +3.3398951860e+02 3.3398951860e+02 0.0000000000e+00 0.0000e+00 1.0000e+00
       21 -1    0    0  501  502 -0.0000000000e+00 -0.0000000000e+00 -1.1695726310e+01 1.1695726310e+01 0.0000000000e+00 0.0000e+00 1.0000e+00
       25  2    1    2    0    0 +0.0000000000e+00 +0.0000000000e+00 +3.2229379229e+02 3.4568524491e+02 1.2500000000e+02 0.0000e+00 0.0000e+00
      -15  1    3    3    0    0 -3.5874343766e+01 +1.8780463982e+01 +2.9271578381e+02 2.9550864994e+02 1.7770000000e+00 0.0000e+00 1.0000e+00
       15  1    3    3    0    0 +3.5874343767e+01 -1.8780463983e+01 +2.9578008477e+01 5.0176594969e+01 1.7770000000e+00 0.0000e+00 1.0000e+00
       22  1    3    3    0    0 -6.2224341200e-10 +1.0065108090e-09 +1.9509601415e-09 2.2817748237e-09 0.0000000000e+00 0.0000e+00 -1.0000e+00
<mgrwt>
<rscale>  2 0.12500000E+03</rscale>
<asrwt>0</asrwt>
<pdfrwt beam="1">  1       21 0.49116099E-01 0.12500000E+03</pdfrwt>
<pdfrwt beam="2">  1       21 0.17199600E-02 0.12500000E+03</pdfrwt>
<totfact> 0.58973022E+06</totfact>
</mgrwt>
</event>
<event>
 6      0 +4.1053447e-01 1.25000000e+02 7.54677100e-03 1.12640300e-01
       21 -1    0    0  502  501 +0.0000000000e+00 +0.0000000000e+00 +8.0558327343e+02 8.0558327343e+02 0.0000000000e+00 0.0000e+00 -1.0000e+00
       21 -1    0    0  501  502 -0.0000000000e+00 -0.0000000000e+00 -4.8489710857e+00 4.8489710857e+00 0.0000000000e+00 0.0000e+00 -1.0000e+00
       25  2    1    2    0    0 +0.0000000000e+00 +0.0000000000e+00 +8.0073430234e+02 8.1043224451e+02 1.2500000000e+02 0.0000e+00 0.0000e+00
      -15  1    3    3    0    0 -4.2691500997e+01 +4.4149613377e+01 +4.7466985713e+02 4.7862969362e+02 1.7770000000e+00 0.0000e+00 -1.0000e+00
       15  1    3    3    0    0 +4.2691500997e+01 -4.4149613377e+01 +3.2606444526e+02 3.3180255094e+02 1.7770000000e+00 0.0000e+00 -1.0000e+00
       22  1    3    3    0    0 -1.5440677390e-10 -2.8690614731e-11 +3.9033537116e-09 3.9065118457e-09 0.0000000000e+00 0.0000e+00 1.0000e+00
<mgrwt>
<rscale>  2 0.12500000E+03</rscale>
<asrwt>0</asrwt>
<pdfrwt beam="1">  1       21 0.11846804E+00 0.12500000E+03</pdfrwt>
<pdfrwt beam="2">  1       21 0.71308454E-03 0.12500000E+03</pdfrwt>
<totfact> 0.27850970E+06</totfact>
</mgrwt>
</event>
<event>
 6      0 +4.1053447e-01 1.25000000e+02 7.54677100e-03 1.12640300e-01
       21 -1    0    0  502  501 +0.0000000000e+00 +0.0000000000e+00 +1.3930282479e+02 1.3930282479e+02 0.0000000000e+00 0.0000e+00 1.0000e+00
       21 -1    0    0  501  502 -0.0000000000e+00 -0.0000000000e+00 -2.8041427055e+01 2.8041427055e+01 0.0000000000e+00 0.0000e+00 1.0000e+00
       25  2    1    2    0    0 +0.0000000000e+00 +0.0000000000e+00 +1.1126139774e+02 1.6734425185e+02 1.2500000000e+02 0.0000e+00 0.0000e+00
      -15  1    3    3    0    0 +9.0339877849e+00 -6.1128076973e+01 +6.7961600059e+01 9.1870515081e+01 1.7770000000e+00 0.0000e+00 1.0000e+00
       15  1    3    3    0    0 -9.0339849242e+00 +6.1128062536e+01 +4.3299787940e+01 7.5473719119e+01 1.7770000000e+00 0.0000e+00 1.0000e+00
       22  1    3    3    0    0 -2.8607284154e-06 +1.4437264283e-05 +9.7400171822e-06 1.7648974524e-05 0.0000000000e+00 0.0000e+00 -1.0000e+00
<mgrwt>
<rscale>  2 0.12500000E+03</rscale>
<asrwt>0</asrwt>
<pdfrwt beam="1">  1       21 0.20485709E-01 0.12500000E+03</pdfrwt>
<pdfrwt beam="2">  1       21 0.41237393E-02 0.12500000E+03</pdfrwt>
<totfact> 0.81788084E+06</totfact>
</mgrwt>
</event>
<event>
 6      0 +4.1053447e-01 1.25000000e+02 7.54677100e-03 1.12640300e-01
       21 -1    0    0  502  501 +0.0000000000e+00 +0.0000000000e+00 +1.0063158347e+01 1.0063158347e+01 0.0000000000e+00 0.0000e+00 -1.0000e+00
       21 -1    0    0  501  502 -0.0000000000e+00 -0.0000000000e+00 -3.8817336121e+02 3.8817336121e+02 0.0000000000e+00 0.0000e+00 -1.0000e+00
       25  2    1    2    0    0 +0.0000000000e+00 +0.0000000000e+00 -3.7811020287e+02 3.9823651956e+02 1.2500000000e+02 0.0000e+00 0.0000e+00
      -15  1    3    3    0    0 -2.7781684739e+01 +1.5771759496e+01 -3.5923207204e+02 3.6065414141e+02 1.7770000000e+00 0.0000e+00 -1.0000e+00
       15  1    3    3    0    0 +2.7728054105e+01 -1.5589285143e+01 -1.7814443207e+01 3.6501820661e+01 1.7770000000e+00 0.0000e+00 -1.0000e+00
       22  1    3    3    0    0 +5.3630633775e-02 -1.8247435270e-01 -1.0636876618e+00 1.0805575302e+00 0.0000000000e+00 0.0000e+00 -1.0000e+00
<mgrwt>
<rscale>  2 0.12500000E+03</rscale>
<asrwt>0</asrwt>
<pdfrwt beam="1">  1       21 0.14798763E-02 0.12500000E+03</pdfrwt>
<pdfrwt beam="2">  1       21 0.57084315E-01 0.12500000E+03</pdfrwt>
<totfact> 0.53819124E+06</totfact>
</mgrwt>
</event>
<event>
 6      0 +4.1053447e-01 1.25000000e+02 7.54677100e-03 1.12640300e-01
       21 -1    0    0  502  501 +0.0000000000e+00 +0.0000000000e+00 +1.5756109096e+02 1.5756109096e+02 0.0000000000e+00 0.0000e+00 1.0000e+00
       21 -1    0    0  501  502 -0.0000000000e+00 -0.0000000000e+00 -2.4791971013e+01 2.4791971013e+01 0.0000000000e+00 0.0000e+00 1.0000e+00
       25  2    1    2    0    0 +0.0000000000e+00 +0.0000000000e+00 +1.3276911995e+02 1.8235306198e+02 1.2500000000e+02 0.0000e+00 0.0000e+00
      -15  1    3    3    0    0 -3.3138237909e+01 -3.3902275652e+01 +8.4130973638e+00 4.8181376509e+01 1.7770000000e+00 0.0000e+00 -1.0000e+00
       15  1    3    3    0    0 +1.8303671479e+01 +1.7047376858e+01 +4.3033675171e+01 4.9806549520e+01 1.7770000000e+00 0.0000e+00 -1.0000e+00
       22  1    3    3    0    0 +1.4834566430e+01 +1.6854898793e+01 +8.1322347411e+01 8.4365135945e+01 0.0000000000e+00 0.0000e+00 -1.0000e+00
<mgrwt>
<rscale>  2 0.12500000E+03</rscale>
<asrwt>0</asrwt>
<pdfrwt beam="1">  1       21 0.23170748E-01 0.12500000E+03</pdfrwt>
<pdfrwt beam="2">  1       21 0.36458781E-02 0.12500000E+03</pdfrwt>
<totfact> 0.79447590E+06</totfact>
</mgrwt>
</event>
<event>
 6      0 +4.1053447e-01 1.25000000e+02 7.54677100e-03 1.12640300e-01
       21 -1    0    0  502  501 +0.0000000000e+00 +0.0000000000e+00 +2.6150544692e+02 2.6150544692e+02 0.0000000000e+00 0.0000e+00 -1.0000e+00
       21 -1    0    0  501  502 -0.0000000000e+00 -0.0000000000e+00 -1.4937547366e+01 1.4937547366e+01 0.0000000000e+00 0.0000e+00 -1.0000e+00
       25  2    1    2    0    0 +0.0000000000e+00 +0.0000000000e+00 +2.4656789956e+02 2.7644299429e+02 1.2500000000e+02 0.0000e+00 0.0000e+00
      -15  1    3    3    0    0 +6.0085997633e+01 +1.1665194837e+01 +9.5601329779e+01 1.1353050633e+02 1.7770000000e+00 0.0000e+00 -1.0000e+00
       15  1    3    3    0    0 -6.0086002231e+01 -1.1665136172e+01 +1.5096654161e+02 1.6291242273e+02 1.7770000000e+00 0.0000e+00 -1.0000e+00
       22  1    3    3    0    0 +4.5977084260e-06 -5.8665334001e-05 +2.8185862208e-05 6.5247246414e-05 0.0000000000e+00 0.0000e+00 -1.0000e+00
<mgrwt>
<rscale>  2 0.12500000E+03</rscale>
<asrwt>0</asrwt>
<pdfrwt beam="1">  1       21 0.38456681E-01 0.12500000E+03</pdfrwt>
<pdfrwt beam="2">  1       21 0.21966983E-02 0.12500000E+03</pdfrwt>
<totfact> 0.66717494E+06</totfact>
</mgrwt>
</event>
<event>
 6      0 +4.1053447e-01 1.25000000e+02 7.54677100e-03 1.12640300e-01
       21 -1    0    0  502  501 +0.0000000000e+00 +0.0000000000e+00 +1.8858547275e+01 1.8858547275e+01 0.0000000000e+00 0.0000e+00 1.0000e+00
       21 -1    0    0  501  502 -0.0000000000e+00 -0.0000000000e+00 -2.0713419454e+02 2.0713419454e+02 0.0000000000e+00 0.0000e+00 1.0000e+00
       25  2    1    2    0    0 +0.0000000000e+00 +0.0000000000e+00 -1.8827564726e+02 2.2599274181e+02 1.2500000000e+02 0.0000e+00 0.0000e+00
      -15  1    3    3    0    0 -2.5585448578e+01 +2.8301928706e+01 -4.6953725655e+00 3.8481405900e+01 1.7770000000e+00 0.0000e+00 1.0000e+00
       15  1    3    3    0    0 +2.5580497825e+01 -2.8298167382e+01 -1.8355366700e+02 1.8748401143e+02 1.7770000000e+00 0.0000e+00 1.0000e+00
       22  1    3    3    0    0 +4.9507533567e-03 -3.7613245533e-03 -2.6607700689e-02 2.7324480913e-02 0.0000000000e+00 0.0000e+00 1.0000e+00
<mgrwt>
<rscale>  2 0.12500000E+03</rscale>
<asrwt>0</asrwt>
<pdfrwt beam="1">  1       21 0.27733156E-02 0.12500000E+03</pdfrwt>
<pdfrwt beam="2">  1       21 0.30460912E-01 0.12500000E+03</pdfrwt>
<totfact> 0.73177191E+06</totfact>
</mgrwt>
</event>
<event>
 6      0 +4.1053447e-01 1.25000000e+02 7.54677100e-03 1.12640300e-01
       21 -1    0    0  502  501 +0.0000000000e+00 +0.0000000000e+00 +6.7928279488e+02 6.7928279488e+02 0.0000000000e+00 0.0000e+00 -1.0000e+00
       21 -1    0    0  501  502 -0.0000000000e+00 -0.0000000000e+00 -5.7505504768e+00 5.7505504768e+00 0.0000000000e+00 0.0000e+00 -1.0000e+00
       25  2    1    2    0    0 +0.0000000000e+00 +0.0000000000e+00 +6.7353224441e+02 6.8503334536e+02 1.2500000000e+02 0.0000e+00 0.0000e+00
      -15  1    3    3    0    0 -1.9428686060e+01 -1.0744318800e+01 +6.5679197604e+02 6.5716951523e+02 1.7770000000e+00 0.0000e+00 -1.0000e+00
       15  1    3    3    0    0 +1.9429077625e+01 +1.0743954174e+01 +1.6736908476e+01 2.7860427903e+01 1.7770000000e+00 0.0000e+00 -1.0000e+00
       22  1    3    3    0    0 -3.9156535375e-04 +3.6462532200e-04 +3.3599948987e-03 3.4023287277e-03 0.0000000000e+00 0.0000e+00 -1.0000e+00
<mgrwt>
<rscale>  2 0.12500000E+03</rscale>
<asrwt>0</asrwt>
<pdfrwt beam="1">  1       21 0.99894474E-01 0.12500000E+03</pdfrwt>
<pdfrwt beam="2">  1       21 0.84566965E-03 0.12500000E+03</pdfrwt>
<totfact> 0.33683523E+06</totfact>
</mgrwt>
</event>
<event>
 6      0 +4.1053447e-01 1.25000000e+02 7.54677100e-03 1.12640300e-01
       21 -1    0    0  502  501 +0.0000000000e+00 +0.0000000000e+00 +2.4630305048e+01 2.4630305048e+01 0.0000000000e+00 0.0000e+00 1.0000e+00
       21 -1    0    0  501  502 -0.0000000000e+00 -0.0000000000e+00 -1.5859527490e+02 1.5859527490e+02 0.0000000000e+00 0.0000e+00 1.0000e+00
       25  2    1    2    0    0 +0.0000000000e+00 +0.0000000000e+00 -1.3396496985e+02 1.8322557995e+02 1.2500000000e+02 0.0000e+00 0.0000e+00
      -15  1    3    3    0    0 -6.9200598216e+00 -4.0849649681e+01 -2.6983583047e+00 4.1557429824e+01 1.7770000000e+00 0.0000e+00 1.0000e+00
       15  1    3    3    0    0 +7.7982084383e+00 +4.3663821682e+01 -1.3142165122e+02 1.3871607520e+02 1.7770000000e+00 0.0000e+00 1.0000e+00
       22  1    3    3    0    0 -8.7814861674e-01 -2.8141720009e+00 +1.5503968288e-01 2.9520749223e+00 0.0000000000e+00 0.0000e+00 1.0000e+00
<mgrwt>
<rscale>  2 0.12500000E+03</rscale>
<asrwt>0</asrwt>
<pdfrwt beam="1">  1       21 0.36221036E-02 0.12500000E+03</pdfrwt>
<pdfrwt beam="2">  1       21 0.23322835E-01 0.12500000E+03</pdfrwt>
<totfact> 0.79315219E+06</totfact>
</mgrwt>
</event>
<event>
 6      0 +4.1053447e-01 1.25000000e+02 7.54677100e-03 1.12640300e-01
       21 -1    0    0  502  501 +0.0000000000e+00 +0.0000000000e+00 +5.3383624339e+01 5.3383624339e+01 0.0000000000e+00 0.0000e+00 1.0000e+00
       21 -1    0    0  501  502 -0.0000000000e+00 -0.0000000000e+00 -7.3173188376e+01 7.3173188376e+01 0.0000000000e+00 0.0000e+00 1.0000e+00
       25  2    1    2    0    0 +0.0000000000e+00 +0.0000000000e+00 -1.9789564037e+01 1.2655681272e+02 1.2500000000e+02 0.0000e+00 0.0000e+00
      -15  1    3    3    0    0 +2.0805264993e+01 -1.2167680796e+01 +4.8461434890e+01 5.4153300065e+01 1.7770000000e+00 0.0000e+00 1.0000e+00
       15  1    3    3    0    0 -2.0805265754e+01 +1.2167681166e+01 -6.8251000647e+01 7.2403510733e+01 1.7770000000e+00 0.0000e+00 1.0000e+00
       22  1    3    3    0    0 +7.6103541433e-07 -3.6998348804e-07 +1.7207135139e-06 1.9175290559e-06 0.0000000000e+00 0.0000e+00 -1.0000e+00
<mgrwt>
<rscale>  2 0.12500000E+03</rscale>
<asrwt>0</asrwt>
<pdfrwt beam="1">  1       21 0.78505330E-02 0.12500000E+03</pdfrwt>
<pdfrwt beam="2">  1       21 0.10760763E-01 0.12500000E+03</pdfrwt>
<totfact> 0.88711975E+06</totfact>
</mgrwt>
</event>
<event>
 6      0 +4.1053447e-01 1.25000000e+02 7.54677100e-03 1.12640300e-01
       21 -1    0    0  502  501 +0.0000000000e+00 +0.0000000000e+00 +9.7332076753e+00 9.7332076753e+00 0.0000000000e+00 0.0000e+00 -1.0000e+00
       21 -1    0    0  501  502 -0.0000000000e+00 -0.0000000000e+00 -4.0133223602e+02 4.0133223602e+02 0.0000000000e+00 0.0000e+00 -1.0000e+00
       25  2    1    2    0    0 +0.0000000000e+00 +0.0000000000e+00 -3.9159902835e+02 4.1106544370e+02 1.2500000000e+02 0.0000e+00 0.0000e+00
      -15  1    3    3    0    0 +2.5064428833e+01 +3.8128142485e+01 -5.5463475692e+01 7.1842436672e+01 1.7770000000e+00 0.0000e+00 1.0000e+00
       15  1    3    3    0    0 -2.5064428044e+01 -3.8128143215e+01 -3.3613554979e+02 3.3922300396e+02 1.7770000000e+00 0.0000e+00 1.0000e+00
       22  1    3    3    0    0 -7.8902684456e-07 +7.2978379912e-07 -2.8787830662e-06 3.0728715718e-06 0.0000000000e+00 0.0000e+00 -1.0000e+00
<mgrwt>
<rscale>  2 0.12500000E+03</rscale>
<asrwt>0</asrwt>
<pdfrwt beam="1">  1       21 0.14313540E-02 0.12500000E+03</pdfrwt>
<pdfrwt beam="2">  1       21 0.59019448E-01 0.12500000E+03</pdfrwt>
<totfact> 0.52645996E+06</totfact>
</mgrwt>
</event>
<event>
 6      0 +4.1053447e-01 1.25000000e+02 7.54677100e-03 1.12640300e-01
       21 -1    0    0  502  501 +0.0000000000e+00 +0.0000000000e+00 +1.5039317037e+03 1.5039317037e+03 0.0000000000e+00 0.0000e+00 -1.0000e+00
       21 -1    0    0  501  502 -0.0000000000e+00 -0.0000000000e+00 -2.5973586369e+00 2.5973586369e+00 0.0000000000e+00 0.0000e+00 -1.0000e+00
       25  2    1    2    0    0 +0.0000000000e+00 +0.0000000000e+00 +1.5013343451e+03 1.5065290624e+03 1.2500000000e+02 0.0000e+00 0.0000e+00
      -15  1    3    3    0    0 -2.9524129467e+01 -1.1236867650e-01 +1.4142413455e+03 1.4145506098e+03 1.7770000000e+00 0.0000e+00 -1.0000e+00
       15  1    3    3    0    0 +2.9524130477e+01 +1.1236860762e-01 +8.7092947498e+01 9.1978400399e+01 1.7770000000e+00 0.0000e+00 -1.0000e+00
       22  1    3    3    0    0 -1.0101400232e-06 +6.8873507724e-08 +4.8334849390e-05 4.8345452651e-05 0.0000000000e+00 0.0000e+00 -1.0000e+00
<mgrwt>
<rscale>  2 0.12500000E+03</rscale>
<asrwt>0</asrwt>
<pdfrwt beam="1">  1       21 0.22116582E+00 0.12500000E+03</pdfrwt>
<pdfrwt beam="2">  1       21 0.38196555E-03 0.12500000E+03</pdfrwt>
<totfact> 0.10518862E+06</totfact>
</mgrwt>
</event>
<event>
 6      0 +4.1053447e-01 1.25000000e+02 7.54677100e-03 1.12640300e-01
       21 -1    0    0  502  501 +0.0000000000e+00 +0.0000000000e+00 +8.4547746594e+02 8.4547746594e+02 0.0000000000e+00 0.0000e+00 -1.0000e+00
       21 -1    0    0  501  502 -0.0000000000e+00 -0.0000000000e+00 -4.6201704449e+00 4.6201704449e+00 0.0000000000e+00 0.0000e+00 -1.0000e+00
       25  2    1    2    0    0 +0.0000000000e+00 +0.0000000000e+00 +8.4085729549e+02 8.5009763638e+02 1.2500000000e+02 0.0000e+00 0.0000e+00
      -15  1    3    3    0    0 +4.2823735379e+01 +2.9985968474e+00 +1.1174702725e+02 1.1972226077e+02 1.7770000000e+00 0.0000e+00 -1.0000e+00
       15  1    3    3    0    0 -4.2824753649e+01 -2.9985372682e+00 +7.2910775855e+02 7.3037266656e+02 1.7770000000e+00 0.0000e+00 -1.0000e+00
       22  1    3    3    0    0 +1.0182703461e-03 -5.9579124752e-05 +2.5096775169e-03 2.7090414188e-03 0.0000000000e+00 0.0000e+00 -1.0000e+00
<mgrwt>
<rscale>  2 0.12500000E+03</rscale>
<asrwt>0</asrwt>
<pdfrwt beam="1">  1       21 0.12433481E+00 0.12500000E+03</pdfrwt>
<pdfrwt beam="2">  1       21 0.67943742E-03 0.12500000E+03</pdfrwt>
<totfact> 0.26269281E+06</totfact>
</mgrwt>
</event>
<event>
 6      0 +4.1053447e-01 1.25000000e+02 7.54677100e-03 1.12640300e-01
       21 -1    0    0  502  501 +0.0000000000e+00 +0.0000000000e+00 +5.0000116934e+01 5.0000116934e+01 0.0000000000e+00 0.0000e+00 1.0000e+00
       21 -1    0    0  501  502 -0.0000000000e+00 -0.0000000000e+00 -7.8124817292e+01 7.8124817292e+01 0.0000000000e+00 0.0000e+00 1.0000e+00
       25  2    1    2    0    0 +0.0000000000e+00 +0.0000000000e+00 -2.8124700358e+01 1.2812493423e+02 1.2500000000e+02 0.0000e+00 0.0000e+00
      -15  1    3    3    0    0 +3.8319921843e+01 +1.9471402438e+01 -6.0533832599e+01 7.4263413207e+01 1.7770000000e+00 0.0000e+00 -1.0000e+00
       15  1    3    3    0    0 -3.8318444500e+01 -1.9470621336e+01 +3.2408189634e+01 5.3859602379e+01 1.7770000000e+00 0.0000e+00 -1.0000e+00
       22  1    3    3    0    0 -1.4773436369e-03 -7.8110223004e-04 +9.4260814294e-04 1.9186388473e-03 0.0000000000e+00 0.0000e+00 1.0000e+00
<mgrwt>
<rscale>  2 0.12500000E+03</rscale>
<asrwt>0</asrwt>
<pdfrwt beam="1">  1       21 0.73529585E-02 0.12500000E+03</pdfrwt>
<pdfrwt beam="2">  1       21 0.11488944E-01 0.12500000E+03</pdfrwt>
<totfact> 0.88435609E+06</totfact>
</mgrwt>
</event>
<event>
 6      0 +4.1053447e-01 1.25000000e+02 7.54677100e-03 1.12640300e-01
       21 -1    0    0  502  501 +0.0000000000e+00 +0.0000000000e+00 +9.3389755860e+01 9.3389755860e+01 0.0000000000e+00 0.0000e+00 1.0000e+00
       21 -1    0    0  501  502 -0.0000000000e+00 -0.0000000000e+00 -4.1827392780e+01 4.1827392780e+01 0.0000000000e+00 0.0000e+00 1.0000e+00
       25  2    1    2    0    0 +0.0000000000e+00 +0.0000000000e+00 +5.1562363080e+01 1.3521714864e+02 1.2500000000e+02 0.0000e+00 0.0000e+00
      -15  1    3    3    0    0 +1.2571025241e+01 -5.0586019617e+01 -1.1451691893e+01 5.3397331699e+01 1.7770000000e+00 0.0000e+00 1.0000e+00
       15  1    3    3    0    0 -1.2553568197e+01 +5.0434011775e+01 +6.2624394200e+01 8.1401192228e+01 1.7770000000e+00 0.0000e+00 1.0000e+00
       22  1    3    3    0    0 -1.7457043637e-02 +1.5200784202e-01 +3.8966077263e-01 4.1862471276e-01 0.0000000000e+00 0.0000e+00 -1.0000e+00
<mgrwt>
<rscale>  2 0.12500000E+03</rscale>
<asrwt>0</asrwt>
<pdfrwt beam="1">  1       21 0.13733788E-01 0.12500000E+03</pdfrwt>
<pdfrwt beam="2">  1       21 0.61510872E-02 0.12500000E+03</pdfrwt>
<totfact> 0.87167937E+06</totfact>
</mgrwt>
</event>
<event>
 6      0 +4.1053447e-01 1.25000000e+02 7.54677100e-03 1.12640300e-01
       21 -1    0    0  502  501 +0.0000000000e+00 +0.0000000000e+00 +8.5320496397e+02 8.5320496397e+02 0.0000000000e+00 0.0000e+00 -1.0000e+00
       21 -1    0    0  501  502 -0.0000000000e+00 -0.0000000000e+00 -4.5783254493e+00 4.5783254493e+00 0.0000000000e+00 0.0000e+00 -1.0000e+00
       25  2    1    2    0    0 +0.0000000000e+00 +0.0000000000e+00 +8.4862663852e+02 8.5778328942e+02 1.2500000000e+02 0.0000e+00 0.0000e+00
      -15  1    3    3    0    0 +3.5633864717e+01 +4.2887826526e+01 +6.1767273218e+02 6.2018698776e+02 1.7770000000e+00 0.0000e+00 -1.0000e+00
       15  1    3    3    0    0 -3.5633864717e+01 -4.2887826526e+01 +2.3095390628e+02 2.3759630159e+02 1.7770000000e+00 0.0000e+00 -1.0000e+00
       22  1    3    3    0    0 -1.3868412802e-11 +3.2617684108e-10 +2.8869242654e-09 2.9053253482e-09 0.0000000000e+00 0.0000e+00 1.0000e+00
<mgrwt>
<rscale>  2 0.12500000E+03</rscale>
<asrwt>0</asrwt>
<pdfrwt beam="1">  1       21 0.12547121E+00 0.12500000E+03</pdfrwt>
<pdfrwt beam="2">  1       21 0.67328375E-03 0.12500000E+03</pdfrwt>
<totfact> 0.25974220E+06</totfact>
</mgrwt>
</event>
<event>
 6      0 +4.1053447e-01 1.25000000e+02 7.54677100e-03 1.12640300e-01
       21 -1    0    0  502  501 +0.0000000000e+00 +0.0000000000e+00 +1.5419754838e+02 1.5419754838e+02 0.0000000000e+00 0.0000e+00 -1.0000e+00
       21 -1    0    0  501  502 -0.0000000000e+00 -0.0000000000e+00 -2.5332763336e+01 2.5332763336e+01 0.0000000000e+00 0.0000e+00 -1.0000e+00
       25  2    1    2    0    0 +0.0000000000e+00 +0.0000000000e+00 +1.2886478504e+02 1.7953031171e+02 1.2500000000e+02 0.0000e+00 0.0000e+00
      -15  1    3    3    0    0 -1.3865058436e+01 -4.6570289440e+01 +8.5981596906e+00 4.9377300282e+01 1.7770000000e+00 0.0000e+00 1.0000e+00
       15  1    3    3    0    0 +1.3983544496e+01 +4.6910204414e+01 +1.2018588257e+02 1.2978409338e+02 1.7770000000e+00 0.0000e+00 1.0000e+00
       22  1    3    3    0    0 -1.1848605969e-01 -3.3991497353e-01 +8.0742779745e-02 3.6891805602e-01 0.0000000000e+00 0.0000e+00 -1.0000e+00
<mgrwt>
<rscale>  2 0.12500000E+03</rscale>
<asrwt>0</asrwt>
<pdfrwt beam="1">  1       21 0.22676110E-01 0.12500000E+03</pdfrwt>
<pdfrwt beam="2">  1       21 0.37254065E-02 0.12500000E+03</pdfrwt>
<totfact> 0.79878330E+06</totfact>
</mgrwt>
</event>
<event>
 6      0 +4.1053447e-01 1.25000000e+02 7.54677100e-03 1.12640300e-01
       21 -1    0    0  502  501 +0.0000000000e+00 +0.0000000000e+00 +3.5456565088e+01 3.5456565088e+01 0.0000000000e+00 0.0000e+00 1.0000e+00
       21 -1    0    0  501  502 -0.0000000000e+00 -0.0000000000e+00 -1.1017000633e+02 1.1017000633e+02 0.0000000000e+00 0.0000e+00 1.0000e+00
       25  2    1    2    0    0 +0.0000000000e+00 +0.0000000000e+00 -7.4713441239e+01 1.4562657141e+02 1.2500000000e+02 0.0000e+00 0.0000e+00
      -15  1    3    3    0    0 -5.1306980202e+01 -1.1854893067e+01 -7.6373696464e+00 5.3239382521e+01 1.7770000000e+00 0.0000e+00 -1.0000e+00
       15  1    3    3    0    0 +4.9217019709e+01 +1.3537087078e+01 -3.9205691316e+01 6.4387978040e+01 1.7770000000e+00 0.0000e+00 -1.0000e+00
       22  1    3    3    0    0 +2.0899604937e+00 -1.6821940108e+00 -2.7870380279e+01 2.7999210854e+01 0.0000000000e+00 0.0000e+00 -1.0000e+00
<mgrwt>
<rscale>  2 0.12500000E+03</rscale>
<asrwt>0</asrwt>
<pdfrwt beam="1">  1       21 0.52142008E-02 0.12500000E+03</pdfrwt>
<pdfrwt beam="2">  1       21 0.16201471E-01 0.12500000E+03</pdfrwt>
<totfact> 0.85366687E+06</totfact>
</mgrwt>
</event>
<event>
 6      0 +4.1053447e-01 1.25000000e+02 7.54677100e-03 1.12640300e-01
       21 -1    0    0  502  501 +0.0000000000e+00 +0.0000000000e+00 +7.4340483840e+02 7.4340483840e+02 0.0000000000e+00 0.0000e+00 1.0000e+00
       21 -1    0    0  501  502 -0.0000000000e+00 -0.0000000000e+00 -5.2545393818e+00 5.2545393818e+00 0.0000000000e+00 0.0000e+00 1.0000e+00
       25  2    1    2    0    0 +0.0000000000e+00 +0.0000000000e+00 +7.3815029902e+02 7.4865937779e+02 1.2500000000e+02 0.0000e+00 0.0000e+00
      -15  1    3    3    0    0 +4.8963616308e+01 +7.4197360240e+00 +5.9714876915e+02 5.9920138386e+02 1.7770000000e+00 0.0000e+00 -1.0000e+00
       15  1    3    3    0    0 -4.8965096754e+01 -7.4194917246e+00 +1.4097427868e+02 1.4943070145e+02 1.7770000000e+00 0.0000e+00 -1.0000e+00
       22  1    3    3    0    0 +1.4804457085e-03 -2.4429945814e-04 +2.7250969030e-02 2.7292246422e-02 0.0000000000e+00 0.0000e+00 1.0000e+00
<mgrwt>
<rscale>  2 0.12500000E+03</rscale>
<asrwt>0</asrwt>
<pdfrwt beam="1">  1       21 0.10932417E+00 0.12500000E+03</pdfrwt>
<pdfrwt beam="2">  1       21 0.77272689E-03 0.12500000E+03</pdfrwt>
<totfact> 0.30556166E+06</totfact>
</mgrwt>
</event>
<event>
 6      0 +4.1053447e-01 1.25000000e+02 7.54677100e-03 1.12640300e-01
       21 -1    0    0  502  501 +0.0000000000e+00 +0.0000000000e+00 +2.9241805899e+00 2.9241805899e+00 0.0000000000e+00 0.0000e+00 -1.0000e+00
       21 -1    0    0  501  502 -0.0000000000e+00 -0.0000000000e+00 -1.3358443092e+03 1.3358443092e+03 0.0000000000e+00 0.0000e+00 -1.0000e+00
       25  2    1    2    0    0 +0.0000000000e+00 +0.0000000000e+00 -1.3329201286e+03 1.3387684898e+03 1.2500000000e+02 0.0000e+00 0.0000e+00
      -15  1    3    3    0    0 +6.6536630219e+00 -9.2702178738e+00 -8.6061960881e+00 1.4402517530e+01 1.7770000000e+00 0.0000e+00 1.0000e+00
       15  1    3    3    0    0 -6.6536820806e+00 +9.2736315764e+00 -1.3243112599e+03 1.3243616359e+03 1.7770000000e+00 0.0000e+00 1.0000e+00
       22  1    3    3    0    0 +1.9058730226e-05 -3.4137026163e-03 -2.6702894734e-03 4.3340713715e-03 0.0000000000e+00 0.0000e+00 -1.0000e+00
<mgrwt>
<rscale>  2 0.12500000E+03</rscale>
<asrwt>0</asrwt>
<pdfrwt beam="1">  1       21 0.43002585E-03 0.12500000E+03</pdfrwt>
<pdfrwt beam="2">  1       21 0.19644802E+00 0.12500000E+03</pdfrwt>
<totfact> 0.13239228E+06</totfact>
</mgrwt>
</event>
<event>
 6      0 +4.1053447e-01 1.25000000e+02 7.54677100e-03 1.12640300e-01
       21 -1    0    0  502  501 +0.0000000000e+00 +0.0000000000e+00 +1.1837118371e+01 1.1837118371e+01 0.0000000000e+00 0.0000e+00 1.0000e+00
       21 -1    0    0  501  502 -0.0000000000e+00 -0.0000000000e+00 -3.3000007920e+02 3.3000007920e+02 0.0000000000e+00 0.0000e+00 1.0000e+00
       25  2    1    2    0    0 +0.0000000000e+00 +0.0000000000e+00 -3.1816296083e+02 3.4183719757e+02 1.2500000000e+02 0.0000e+00 0.0000e+00
      -15  1    3    3    0    0 +9.8645547071e+00 +5.7758760665e+01 -2.1834991668e+02 2.2608234720e+02 1.7770000000e+00 0.0000e+00 1.0000e+00
       15  1    3    3    0    0 -9.8645547052e+00 -5.7758760650e+01 -9.9813044144e+01 1.1575485036e+02 1.7770000000e+00 0.0000e+00 1.0000e+00
       22  1    3    3    0    0 -1.8192807626e-09 -1.4664867566e-08 -2.4943818635e-08 2.8992450937e-08 0.0000000000e+00 0.0000e+00 1.0000e+00
<mgrwt>
<rscale>  2 0.12500000E+03</rscale>
<asrwt>0</asrwt>
<pdfrwt beam="1">  1       21 0.17407526E-02 0.12500000E+03</pdfrwt>
<pdfrwt beam="2">  1       21 0.48529426E-01 0.12500000E+03</pdfrwt>
<totfact> 0.59372586E+06</totfact>
</mgrwt>
</event>
<event>
 6      0 +4.1053447e-01 1.25000000e+02 7.54677100e-03 1.12640300e-01
       21 -1    0    0  502  501 +0.0000000000e+00 +0.0000000000e+00 +4.5366072334e+02 4.5366072334e+02 0.0000000000e+00 0.0000e+00 1.0000e+00
       21 -1    0    0  501  502 -0.0000000000e+00 -0.0000000000e+00 -8.6105095703e+00 8.6105095703e+00 0.0000000000e+00 0.0000e+00 1.0000e+00
       25  2    1    2    0    0 +0.0000000000e+00 +0.0000000000e+00 +4.4505021377e+02 4.6227123291e+02 1.2500000000e+02 0.0000e+00 0.0000e+00
      -15  1    3    3    0    0 +3.1654729952e+01 -5.4707638242e+00 +2.4383084716e+01 4.0368846088e+01 1.7770000000e+00 0.0000e+00 -1.0000e+00
       15  1    3    3    0    0 -3.0703549564e+01 +5.6958486666e+00 +4.0646030440e+02 4.0766197693e+02 1.7770000000e+00 0.0000e+00 -1.0000e+00
       22  1    3    3    0    0 -9.5118038770e-01 -2.2508484241e-01 +1.4206824661e+01 1.4240409905e+01 0.0000000000e+00 0.0000e+00 1.0000e+00
<mgrwt>
<rscale>  2 0.12500000E+03</rscale>
<asrwt>0</asrwt>
<pdfrwt beam="1">  1       21 0.66714796E-01 0.12500000E+03</pdfrwt>
<pdfrwt beam="2">  1       21 0.12662517E-02 0.12500000E+03</pdfrwt>
<totfact> 0.48267179E+06</totfact>
</mgrwt>
</event>
<event>
 6      0 +4.1053447e-01 1.25000000e+02 7.54677100e-03 1.12640300e-01
       21 -1    0    0  502  501 +0.0000000000e+00 +0.0000000000e+00 +5.4647635314e+01 5.4647635314e+01 0.0000000000e+00 0.0000e+00 -1.0000e+00
       21 -1    0    0  501  502 -0.0000000000e+00 -0.0000000000e+00 -7.1480677572e+01 7.1480677572e+01 0.0000000000e+00 0.0000e+00 -1.0000e+00
       25  2    1    2    0    0 +0.0000000000e+00 +0.0000000000e+00 -1.6833042258e+01 1.2612831289e+02 1.2500000000e+02 0.0000e+00 0.0000e+00
      -15  1    3    3    0    0 -3.7593068915e+01 +4.1639155255e+01 +1.9293647210e+01 5.9350321249e+01 1.7770000000e+00 0.0000e+00 -1.0000e+00
       15  1    3    3    0    0 +3.7603696927e+01 -4.1647852103e+01 -3.6093026879e+01 6.6741635624e+01 1.7770000000e+00 0.0000e+00 -1.0000e+00
       22  1    3    3    0    0 -1.0628012474e-02 +8.6968484027e-03 -3.3662588775e-02 3.6356013317e-02 0.0000000000e+00 0.0000e+00 -1.0000e+00
<mgrwt>
<rscale>  2 0.12500000E+03</rscale>
<asrwt>0</asrwt>
<pdfrwt beam="1">  1       21 0.80364170E-02 0.12500000E+03</pdfrwt>
<pdfrwt beam="2">  1       21 0.10511864E-01 0.12500000E+03</pdfrwt>
<totfact> 0.88788617E+06</totfact>
</mgrwt>
</event>
<event>
 6      0 +4.1053447e-01 1.25000000e+02 7.54677100e-03 1.12640300e-01
       21 -1    0    0  502  501 +0.0000000000e+00 +0.0000000000e+00 +1.5838727439e+01 1.5838727439e+01 0.0000000000e+00 0.0000e+00 1.0000e+00
       21 -1    0    0  501  502 -0.0000000000e+00 -0.0000000000e+00 -2.4662650552e+02 2.4662650552e+02 0.0000000000e+00 0.0000e+00 1.0000e+00
       25  2    1    2    0    0 +0.0000000000e+00 +0.0000000000e+00 -2.3078777808e+02 2.6246523295e+02 1.2500000000e+02 0.0000e+00 0.0000e+00
      -15  1    3    3    0    0 +5.1016303339e+01 -2.6342366862e+01 -1.6615172825e+02 1.7580141646e+02 1.7770000000e+00 0.0000e+00 1.0000e+00
       15  1    3    3    0    0 -5.1125914939e+01 +2.6400138931e+01 -6.4294291578e+01 8.6300290686e+01 1.7770000000e+00 0.0000e+00 1.0000e+00
       22  1    3    3    0    0 +1.0961159919e-01 -5.7772069083e-02 -3.4175827475e-01 3.6352583540e-01 0.0000000000e+00 0.0000e+00 1.0000e+00
<mgrwt>
<rscale>  2 0.12500000E+03</rscale>
<asrwt>0</asrwt>
<pdfrwt beam="1">  1       21 0.23292251E-02 0.12500000E+03</pdfrwt>
<pdfrwt beam="2">  1       21 0.36268597E-01 0.12500000E+03</pdfrwt>
<totfact> 0.68427008E+06</totfact>
</mgrwt>
</event>
<event>
 6      0 +4.1053447e-01 1.25000000e+02 7.54677100e-03 1.12640300e-01
       21 -1    0    0  502  501 +0.0000000000e+00 +0.0000000000e+00 +9.8181505606e+01 9.8181505606e+01 0.0000000000e+00 0.0000e+00 1.0000e+00
       21 -1    0    0  501  502 -0.0000000000e+00 -0.0000000000e+00 -3.9786006294e+01 3.9786006294e+01 0.0000000000e+00 0.0000e+00 1.0000e+00
       25  2    1    2    0    0 +0.0000000000e+00 +0.0000000000e+00 +5.8395499312e+01 1.3796751190e+02 1.2500000000e+02 0.0000e+00 0.0000e+00
      -15  1    3    3    0    0 -3.6001451009e+01 +4.2595350482e+01 +4.7574176002e+01 7.3327541270e+01 1.7770000000e+00 0.0000e+00 1.0000e+00
       15  1    3    3    0    0 +2.8912358698e+01 -4.7050546200e+01 +8.1435599707e+00 5.5849383892e+01 1.7770000000e+00 0.0000e+00 1.0000e+00
       22  1    3    3    0    0 +7.0890923111e+00 +4.4551957179e+00 +2.6777633386e+00 8.7905867368e+00 0.0000000000e+00 0.0000e+00 -1.0000e+00
<mgrwt>
<rscale>  2 0.12500000E+03</rscale>
<asrwt>0</asrwt>
<pdfrwt beam="1">  1       21 0.14438457E-01 0.12500000E+03</pdfrwt>
<pdfrwt beam="2">  1       21 0.58508833E-02 0.12500000E+03</pdfrwt>
<totfact> 0.86690919E+06</totfact>
</mgrwt>
</event>
<event>
 6      0 +4.1053447e-01 1.25000000e+02 7.54677100e-03 1.12640300e-01
       21 -1    0    0  502  501 +0.0000000000e+00 +0.0000000000e+00 +2.2889652245e+02 2.2889652245e+02 0.0000000000e+00 0.0000e+00 1.0000e+00
       21 -1    0    0  501  502 -0.0000000000e+00 -0.0000000000e+00 -1.7065571631e+01 1.7065571631e+01 0.0000000000e+00 0.0000e+00 1.0000e+00
       25  2    1    2    0    0 +0.0000000000e+00 +0.0000000000e+00 +2.1183095082e+02 2.4596209408e+02 1.2500000000e+02 0.0000e+00 0.0000e+00
      -15  1    3    3    0    0 -1.1925292453e+01 +2.5833120018e+01 +2.1535779571e+02 2.1723650842e+02 1.7770000000e+00 0.0000e+00 1.0000e+00
       15  1    3    3    0    0 +1.1925293062e+01 -2.5833120450e+01 -3.5268476014e+00 2.8725582846e+01 1.7770000000e+00 0.0000e+00 1.0000e+00
       22  1    3    3    0    0 -6.0861232388e-07 +4.3174345915e-07 +2.7220805275e-06 2.8225048757e-06 0.0000000000e+00 0.0000e+00 1.0000e+00
<mgrwt>
<rscale>  2 0.12500000E+03</rscale>
<asrwt>0</asrwt>
<pdfrwt beam="1">  1       21 0.33661251E-01 0.12500000E+03</pdfrwt>
<pdfrwt beam="2">  1       21 0.25096430E-02 0.12500000E+03</pdfrwt>
<totfact> 0.70525117E+06</totfact>
</mgrwt>
</event>
<event>
 6      0 +4.1053447e-01 1.25000000e+02 7.54677100e-03 1.12640300e-01
       21 -1    0    0  502  501 +0.0000000000e+00 +0.0000000000e+00 +5.0726449878e+00 5.0726449878e+00 0.0000000000e+00 0.0000e+00 1.0000e+00
       21 -1    0    0  501  502 -0.0000000000e+00 -0.0000000000e+00 -7.7006177435e+02 7.7006177435e+02 0.0000000000e+00 0.0000e+00 1.0000e+00
       25  2    1    2    0    0 +0.0000000000e+00 +0.0000000000e+00 -7.6498912937e+02 7.7513441934e+02 1.2500000000e+02 0.0000e+00 0.0000e+00
      -15  1    3    3    0    0 +4.7495125641e+01 -3.5859316196e+01 -4.9698640957e+02 5.0054003491e+02 1.7770000000e+00 0.0000e+00 -1.0000e+00
       15  1    3    3    0    0 -4.7581562515e+01 +3.5955573663e+01 -2.6714031963e+02 2.7372233462e+02 1.7770000000e+00 0.0000e+00 -1.0000e+00
       22  1    3    3    0    0 +8.6436874074e-02 -9.6257466971e-02 -8.6240038408e-01 8.7205003046e-01 0.0000000000e+00 0.0000e+00 -1.0000e+00
<mgrwt>
<rscale>  2 0.12500000E+03</rscale>
<asrwt>0</asrwt>
<pdfrwt beam="1">  1       21 0.74597722E-03 0.12500000E+03</pdfrwt>
<pdfrwt beam="2">  1       21 0.11324438E+00 0.12500000E+03</pdfrwt>
<totfact> 0.29355876E+06</totfact>
</mgrwt>
</event>
<event>
 6      0 +4.1053447e-01 1.25000000e+02 7.54677100e-03 1.12640300e-01
       21 -1    0    0  502  501 +0.0000000000e+00 +0.0000000000e+00 +4.5691147570e+01 4.5691147570e+01 0.0000000000e+00 0.0000e+00 1.0000e+00
       21 -1    0    0  501  502 -0.0000000000e+00 -0.0000000000e+00 -8.5492490509e+01 8.5492490509e+01 0.0000000000e+00 0.0000e+00 1.0000e+00
       25  2    1    2    0    0 +0.0000000000e+00 +0.0000000000e+00 -3.9801342938e+01 1.3118363808e+02 1.2500000000e+02 0.0000e+00 0.0000e+00
      -15  1    3    3    0    0 -7.5497196975e+00 +6.1918063542e+01 -2.2125125696e+01 6.6208185116e+01 1.7770000000e+00 0.0000e+00 1.0000e+00
       15  1    3    3    0    0 +7.4938625299e+00 -6.1958155483e+01 -1.7590690820e+01 6.4865716207e+01 1.7770000000e+00 0.0000e+00 1.0000e+00
       22  1    3    3    0    0 +5.5857167517e-02 +4.0091940934e-02 -8.5526422339e-02 1.0973675687e-01 0.0000000000e+00 0.0000e+00 1.0000e+00
<mgrwt>
<rscale>  2 0.12500000E+03</rscale>
<asrwt>0</asrwt>
<pdfrwt beam="1">  1       21 0.67192864E-02 0.12500000E+03</pdfrwt>
<pdfrwt beam="2">  1       21 0.12572425E-01 0.12500000E+03</pdfrwt>
<totfact> 0.87882909E+06</totfact>
</mgrwt>
</event>
<event>
 6      0 +4.1053447e-01 1.25000000e+02 7.54677100e-03 1.12640300e-01
       21 -1    0    0  502  501 +0.0000000000e+00 +0.0000000000e+00 +1.3524939438e+01 1.3524939438e+01 0.0000000000e+00 0.0000e+00 1.0000e+00
       21 -1    0    0  501  502 -0.0000000000e+00 -0.0000000000e+00 -2.8881829881e+02 2.8881829881e+02 0.0000000000e+00 0.0000e+00 1.0000e+00
       25  2    1    2    0    0 +0.0000000000e+00 +0.0000000000e+00 -2.7529335938e+02 3.0234323825e+02 1.2500000000e+02 0.0000e+00 0.0000e+00
      -15  1    3    3    0    0 -3.5802816205e+01 +4.0706824231e+01 -6.2544350290e+01 8.2787925868e+01 1.7770000000e+00 0.0000e+00 -1.0000e+00
       15  1    3    3    0    0 +3.5797870143e+01 -4.0687405243e+01 -2.1269261242e+02 2.1949546136e+02 1.7770000000e+00 0.0000e+00 -1.0000e+00
       22  1    3    3    0    0 +4.9460624723e-03 -1.9418988123e-02 -5.6396702200e-02 5.9851053898e-02 0.0000000000e+00 0.0000e+00 1.0000e+00
<mgrwt>
<rscale>  2 0.12500000E+03</rscale>
<asrwt>0</asrwt>
<pdfrwt beam="1">  1       21 0.19889618E-02 0.12500000E+03</pdfrwt>
<pdfrwt beam="2">  1       21 0.42473277E-01 0.12500000E+03</pdfrwt>
<totfact> 0.63681614E+06</totfact>
</mgrwt>
</event>
<event>
 6      0 +4.1053447e-01 1.25000000e+02 7.54677100e-03 1.12640300e-01
       21 -1    0    0  502  501 +0.0000000000e+00 +0.0000000000e+00 +2.1440022510e+01 2.1440022510e+01 0.0000000000e+00 0.0000e+00 -1.0000e+00
       21 -1    0    0  501  502 -0.0000000000e+00 -0.0000000000e+00 -1.8219430498e+02 1.8219430498e+02 0.0000000000e+00 0.0000e+00 -1.0000e+00
       25  2    1    2    0    0 +0.0000000000e+00 +0.0000000000e+00 -1.6075428247e+02 2.0363432749e+02 1.2500000000e+02 0.0000e+00 0.0000e+00
      -15  1    3    3    0    0 -3.8148916165e+01 +1.2207962905e+01 -1.5848304033e+02 1.6347601036e+02 1.7770000000e+00 0.0000e+00 -1.0000e+00
       15  1    3    3    0    0 +3.8148916137e+01 -1.2207962892e+01 -2.2712420927e+00 4.0158317071e+01 1.7770000000e+00 0.0000e+00 -1.0000e+00
       22  1    3    3    0    0 +2.7662027720e-08 -1.3648998308e-08 -4.5790915880e-08 5.5211329540e-08 0.0000000000e+00 0.0000e+00 1.0000e+00
<mgrwt>
<rscale>  2 0.12500000E+03</rscale>
<asrwt>0</asrwt>
<pdfrwt beam="1">  1       21 0.31529444E-02 0.12500000E+03</pdfrwt>
<pdfrwt beam="2">  1       21 0.26793281E-01 0.12500000E+03</pdfrwt>
<totfact> 0.76291944E+06</totfact>
</mgrwt>
</event>
<event>
 6      0 +4.1053447e-01 1.25000000e+02 7.54677100e-03 1.12640300e-01
       21 -1    0    0  502  501 +0.0000000000e+00 +0.0000000000e+00 +3.4703027149e+01 3.4703027149e+01 0.0000000000e+00 0.0000e+00 1.0000e+00
       21 -1    0    0  501  502 -0.0000000000e+00 -0.0000000000e+00 -1.1256222644e+02 1.1256222644e+02 0.0000000000e+00 0.0000e+00 1.0000e+00
       25  2    1    2    0    0 +0.0000000000e+00 +0.0000000000e+00 -7.7859199287e+01 1.4726525359e+02 1.2500000000e+02 0.0000e+00 0.0000e+00
      -15  1    3    3    0    0 -2.0139817290e+01 +3.5855158435e+01 -9.4337514626e+01 1.0292681391e+02 1.7770000000e+00 0.0000e+00 -1.0000e+00
       15  1    3    3    0    0 +2.0139817212e+01 -3.5855158348e+01 +1.6478315301e+01 4.4338439549e+01 1.7770000000e+00 0.0000e+00 -1.0000e+00
       22  1    3    3    0    0 +7.8570928071e-08 -8.6124186640e-08 +4.2863887456e-08 1.2420981890e-07 0.0000000000e+00 0.0000e+00 1.0000e+00
<mgrwt>
<rscale>  2 0.12500000E+03</rscale>
<asrwt>0</asrwt>
<pdfrwt beam="1">  1       21 0.51033863E-02 0.12500000E+03</pdfrwt>
<pdfrwt beam="2">  1       21 0.16553269E-01 0.12500000E+03</pdfrwt>
<totfact> 0.85087056E+06</totfact>
</mgrwt>
</event>
<event>
 6      0 +4.1053447e-01 1.25000000e+02 7.54677100e-03 1.12640300e-01
       21 -1    0    0  502  501 +0.0000000000e+00 +0.0000000000e+00 +6.9009266089e+02 6.9009266089e+02 0.0000000000e+00 0.0000e+00 -1.0000e+00
       21 -1    0    0  501  502 -0.0000000000e+00 -0.0000000000e+00 -5.6604717328e+00 5.6604717328e+00 0.0000000000e+00 0.0000e+00 -1.0000e+00
       25  2    1    2    0    0 +0.0000000000e+00 +0.0000000000e+00 +6.8443218916e+02 6.9575313262e+02 1.2500000000e+02 0.0000e+00 0.0000e+00
      -15  1    3    3    0    0 -2.5336013717e+01 -4.0942700930e+01 +4.9365269678e+02 4.9599834789e+02 1.7770000000e+00 0.0000e+00 -1.0000e+00
       15  1    3    3    0    0 +2.6626605697e+01 +4.5003156094e+01 +1.5222166025e+02 1.6096226815e+02 1.7770000000e+00 0.0000e+00 -1.0000e+00
       22  1    3    3    0    0 -1.2905919798e+00 -4.0604551641e+00 +3.8557832305e+01 3.8792516751e+01 0.0000000000e+00 0.0000e+00 -1.0000e+00
<mgrwt>
<rscale>  2 0.12500000E+03</rscale>
<asrwt>0</asrwt>
<pdfrwt beam="1">  1       21 0.10148416E+00 0.12500000E+03</pdfrwt>
<pdfrwt beam="2">  1       21 0.83242279E-03 0.12500000E+03</pdfrwt>
<totfact> 0.33128017E+06</totfact>
</mgrwt>
</event>
<event>
 6      0 +4.1053447e-01 1.25000000e+02 7.54677100e-03 1.12640300e-01
       21 -1    0    0  502  501 +0.0000000000e+00 +0.0000000000e+00 +1.4483683968e+02 1.4483683968e+02 0.0000000000e+00 0.0000e+00 1.0000e+00
       21 -1    0    0  501  502 -0.0000000000e+00 -0.0000000000e+00 -2.6970002995e+01 2.6970002995e+01 0.0000000000e+00 0.0000e+00 1.0000e+00
       25  2    1    2    0    0 +0.0000000000e+00 +0.0000000000e+00 +1.1786683669e+02 1.7180684268e+02 1.2500000000e+02 0.0000e+00 0.0000e+00
      -15  1    3    3    0    0 -3.4135072841e+01 +2.5578327345e+01 -3.8061609061e+00 4.2861388422e+01 1.7770000000e+00 0.0000e+00 1.0000e+00
       15  1    3    3    0    0 +3.4135073145e+01 -2.5578327301e+01 +1.2167299747e+02 1.2894545392e+02 1.7770000000e+00 0.0000e+00 1.0000e+00
       22  1    3    3    0    0 -3.0407777951e-07 -4.4021849809e-08 +1.2916439047e-07 3.3329365284e-07 0.0000000000e+00 0.0000e+00 1.0000e+00
<mgrwt>
<rscale>  2 0.12500000E+03</rscale>
<asrwt>0</asrwt>
<pdfrwt beam="1">  1       21 0.21299535E-01 0.12500000E+03</pdfrwt>
<pdfrwt beam="2">  1       21 0.39661770E-02 0.12500000E+03</pdfrwt>
<totfact> 0.81078416E+06</totfact>
</mgrwt>
</event>
<event>
 6      0 +4.1053447e-01 1.25000000e+02 7.54677100e-03 1.12640300e-01
       21 -1    0    0  502  501 +0.0000000000e+00 +0.0000000000e+00 +2.2884068235e+01 2.2884068235e+01 0.0000000000e+00 0.0000e+00 1.0000e+00
       21 -1    0    0  501  502 -0.0000000000e+00 -0.0000000000e+00 -1.7069735853e+02 1.7069735853e+02 0.0000000000e+00 0.0000e+00 1.0000e+00
       25  2    1    2    0    0 +0.0000000000e+00 +0.0000000000e+00 -1.4781329029e+02 1.9358142676e+02 1.2500000000e+02 0.0000e+00 0.0000e+00
      -15  1    3    3    0    0 -1.8215867331e+01 -3.4497006088e+01 -2.3199696379e+00 3.9120343043e+01 1.7770000000e+00 0.0000e+00 -1.0000e+00
       15  1    3    3    0    0 +1.3560401400e+01 +3.3409683856e+01 -1.4525557700e+02 1.4967441946e+02 1.7770000000e+00 0.0000e+00 -1.0000e+00
       22  1    3    3    0    0 +4.6554659312e+00 +1.0873222319e+00 -2.3774365105e-01 4.7866642577e+00 0.0000000000e+00 0.0000e+00 -1.0000e+00
<mgrwt>
<rscale>  2 0.12500000E+03</rscale>
<asrwt>0</asrwt>
<pdfrwt beam="1">  1       21 0.33653041E-02 0.12500000E+03</pdfrwt>
<pdfrwt beam="2">  1       21 0.25102553E-01 0.12500000E+03</pdfrwt>
<totfact> 0.77764779E+06</totfact>
</mgrwt>
</event>
<event>
 6      0 +4.1053447e-01 1.25000000e+02 7.54677100e-03 1.12640300e-01
       21 -1    0    0  502  501 +0.0000000000e+00 +0.0000000000e+00 +1.8247823877e+02 1.8247823877e+02 0.0000000000e+00 0.0000e+00 1.0000e+00
       21 -1    0    0  501  502 -0.0000000000e+00 -0.0000000000e+00 -2.1406662112e+01 2.1406662112e+01 0.0000000000e+00 0.0000e+00 1.0000e+00
       25  2    1    2    0    0 +0.0000000000e+00 +0.0000000000e+00 +1.6107157665e+02 2.0388490088e+02 1.2500000000e+02 0.0000e+00 0.0000e+00
      -15  1    3    3    0    0 -3.7961466178e+01 -1.9154716756e+01 +5.8853966243e+00 4.2962445353e+01 1.7770000000e+00 0.0000e+00 1.0000e+00
       15  1    3    3    0    0 +3.7939056875e+01 +1.9180023567e+01 +1.5507064773e+02 1.6080207977e+02 1.7770000000e+00 0.0000e+00 1.0000e+00
       22  1    3    3    0    0 +2.2409303072e-02 -2.5306810599e-02 +1.1553228207e-01 1.2037574393e-01 0.0000000000e+00 0.0000e+00 -1.0000e+00
<mgrwt>
<rscale>  2 0.12500000E+03</rscale>
<asrwt>0</asrwt>
<pdfrwt beam="1">  1       21 0.26835034E-01 0.12500000E+03</pdfrwt>
<pdfrwt beam="2">  1       21 0.31480386E-02 0.12500000E+03</pdfrwt>
<totfact> 0.76255859E+06</totfact>
</mgrwt>
</event>
<event>
 6      0 +4.1053447e-01 1.25000000e+02 7.54677100e-03 1.12640300e-01
       21 -1    0    0  502  501 +0.0000000000e+00 +0.0000000000e+00 +4.5834478051e+02 4.5834478051e+02 0.0000000000e+00 0.0000e+00 1.0000e+00
       21 -1    0    0  501  502 -0.0000000000e+00 -0.0000000000e+00 -8.5225144173e+00 8.5225144173e+00 0.0000000000e+00 0.0000e+00 1.0000e+00
       25  2    1    2    0    0 +0.0000000000e+00 +0.0000000000e+00 +4.4982226609e+02 4.6686729493e+02 1.2500000000e+02 0.0000e+00 0.0000e+00
      -15  1    3    3    0    0 +5.1299620280e+01 +1.5188465622e+00 +3.5796798095e+02 3.6163267420e+02 1.7770000000e+00 0.0000e+00 1.0000e+00
       15  1    3    3    0    0 -5.1299602677e+01 -1.5188464046e+00 +9.1854259898e+01 1.0523458994e+02 1.7770000000e+00 0.0000e+00 1.0000e+00
       22  1    3    3    0    0 -1.7602441352e-05 -1.5760891345e-07 +2.5169434704e-05 3.0714348852e-05 0.0000000000e+00 0.0000e+00 -1.0000e+00
<mgrwt>
<rscale>  2 0.12500000E+03</rscale>
<asrwt>0</asrwt>
<pdfrwt beam="1">  1       21 0.67403628E-01 0.12500000E+03</pdfrwt>
<pdfrwt beam="2">  1       21 0.12533112E-02 0.12500000E+03</pdfrwt>
<totfact> 0.47895625E+06</totfact>
</mgrwt>
</event>
<event>
 6      0 +4.1053447e-01 1.25000000e+02 7.54677100e-03 1.12640300e-01
       21 -1    0    0  502  501 +0.0000000000e+00 +0.0000000000e+00 +1.3165656496e+03 1.3165656496e+03 0.0000000000e+00 0.0000e+00 1.0000e+00
       21 -1    0    0  501  502 -0.0000000000e+00 -0.0000000000e+00 -2.9669997856e+00 2.9669997856e+00 0.0000000000e+00 0.0000e+00 1.0000e+00
       25  2    1    2    0    0 +0.0000000000e+00 +0.0000000000e+00 +1.3135986498e+03 1.3195326493e+03 1.2500000000e+02 0.0000e+00 0.0000e+00
      -15  1    3    3    0    0 -3.5236565312e+01 +1.3924175305e+01 +1.1755051688e+03 1.1761169406e+03 1.7770000000e+00 0.0000e+00 1.0000e+00
       15  1    3    3    0    0 +3.5341684501e+01 -1.3978507211e+01 +1.3337236540e+02 1.3869311053e+02 1.7770000000e+00 0.0000e+00 1.0000e+00
       22  1    3    3    0    0 -1.0511918962e-01 +5.4331905391e-02 +4.7211234609e+00 4.7226061378e+00 0.0000000000e+00 0.0000e+00 1.0000e+00
<mgrwt>
<rscale>  2 0.12500000E+03</rscale>
<asrwt>0</asrwt>
<pdfrwt beam="1">  1       21 0.19361219E+00 0.12500000E+03</pdfrwt>
<pdfrwt beam="2">  1       21 0.43632441E-03 0.12500000E+03</pdfrwt>
<totfact> 0.13593927E+06</totfact>
</mgrwt>
</event>
<event>
 6      0 +4.1053447e-01 1.25000000e+02 7.54677100e-03 1.12640300e-01
       21 -1    0    0  502  501 +0.0000000000e+00 +0.0000000000e+00 +8.2503688359e+02 8.2503688359e+02 0.0000000000e+00 0.0000e+00 -1.0000e+00
       21 -1    0    0  501  502 -0.0000000000e+00 -0.0000000000e+00 -4.7346368116e+00 4.7346368116e+00 0.0000000000e+00 0.0000e+00 -1.0000e+00
       25  2    1    2    0    0 +0.0000000000e+00 +0.0000000000e+00 +8.2030224678e+02 8.2977152040e+02 1.2500000000e+02 0.0000e+00 0.0000e+00
      -15  1    3    3    0    0 -1.9959699047e+01 +5.9028715604e+01 +4.4006963468e+02 4.4446284428e+02 1.7770000000e+00 0.0000e+00 -1.0000e+00
       15  1    3    3    0    0 +1.9959685861e+01 -5.9028682119e+01 +3.8023238770e+02 3.8530844885e+02 1.7770000000e+00 0.0000e+00 -1.0000e+00
       22  1    3    3    0    0 +1.3186475900e-05 -3.3484837116e-05 +2.2454844937e-04 2.2741399160e-04 0.0000000000e+00 0.0000e+00 1.0000e+00
<mgrwt>
<rscale>  2 0.12500000E+03</rscale>
<asrwt>0</asrwt>
<pdfrwt beam="1">  1       21 0.12132885E+00 0.12500000E+03</pdfrwt>
<pdfrwt beam="2">  1       21 0.69627069E-03 0.12500000E+03</pdfrwt>
<totfact> 0.27067507E+06</totfact>
</mgrwt>
</event>
<event>
 6      0 +4.1053447e-01 1.25000000e+02 7.54677100e-03 1.12640300e-01
       21 -1    0    0  502  501 +0.0000000000e+00 +0.0000000000e+00 +6.3857351635e+00 6.3857351635e+00 0.0000000000e+00 0.0000e+00 -1.0000e+00
       21 -1    0    0  501  502 -0.0000000000e+00 -0.0000000000e+00 -6.1171500227e+02 6.1171500227e+02 0.0000000000e+00 0.0000e+00 -1.0000e+00
       25  2    1    2    0    0 +0.0000000000e+00 +0.0000000000e+00 -6.0532926710e+02 6.1810073743e+02 1.2500000000e+02 0.0000e+00 0.0000e+00
      -15  1    3    3    0    0 +1.9210929287e+01 +5.5582500622e+01 -4.0693045674e+02 4.1116180334e+02 1.7770000000e+00 0.0000e+00 -1.0000e+00
       15  1    3    3    0    0 -1.9210168562e+01 -5.5581085893e+01 -1.9839353433e+02 2.0693341895e+02 1.7770000000e+00 0.0000e+00 -1.0000e+00
       22  1    3    3    0    0 -7.6072541432e-04 -1.4147284804e-03 -5.2759531752e-03 5.5150559142e-03 0.0000000000e+00 0.0000e+00 -1.0000e+00
<mgrwt>
<rscale>  2 0.12500000E+03</rscale>
<asrwt>0</asrwt>
<pdfrwt beam="1">  1       21 0.93907834E-03 0.12500000E+03</pdfrwt>
<pdfrwt beam="2">  1       21 0.89958123E-01 0.12500000E+03</pdfrwt>
<totfact> 0.37390181E+06</totfact>
</mgrwt>
</event>
<event>
 6      0 +4.1053447e-01 1.25000000e+02 7.54677100e-03 1.12640300e-01
       21 -1    0    0  502  501 +0.0000000000e+00 +0.0000000000e+00 +1.1291205019e+01 1.1291205019e+01 0.0000000000e+00 0.0000e+00 1.0000e+00
       21 -1    0    0  501  502 -0.0000000000e+00 -0.0000000000e+00 -3.4595510341e+02 3.4595510341e+02 0.0000000000e+00 0.0000e+00 1.0000e+00
       25  2    1    2    0    0 +0.0000000000e+00 +0.0000000000e+00 -3.3466389839e+02 3.5724630843e+02 1.2500000000e+02 0.0000e+00 0.0000e+00
      -15  1    3    3    0    0 +2.1020681232e+01 +1.5304251942e+01 -2.8136690235e+02 2.8257137264e+02 1.7770000000e+00 0.0000e+00 -1.0000e+00
       15  1    3    3    0    0 -1.1981656164e+01 +9.6336434127e+00 -4.3876854402e+01 4.6526371566e+01 1.7770000000e+00 0.0000e+00 -1.0000e+00
       22  1    3    3    0    0 -9.0390250678e+00 -2.4937895355e+01 -9.4201416220e+00 2.8148564211e+01 0.0000000000e+00 0.0000e+00 -1.0000e+00
<mgrwt>
<rscale>  2 0.12500000E+03</rscale>
<asrwt>0</asrwt>
<pdfrwt beam="1">  1       21 0.16604712E-02 0.12500000E+03</pdfrwt>
<pdfrwt beam="2">  1       21 0.50875754E-01 0.12500000E+03</pdfrwt>
<totfact> 0.57792015E+06</totfact>
</mgrwt>
</event>
<event>
 6      0 +4.1053447e-01 1.25000000e+02 7.54677100e-03 1.12640300e-01
       21 -1    0    0  502  501 +0.0000000000e+00 +0.0000000000e+00 +9.7959974631e+00 9.7959974631e+00 0.0000000000e+00 0.0000e+00 1.0000e+00
       21 -1    0    0  501  502 -0.0000000000e+00 -0.0000000000e+00 -3.9875980110e+02 3.9875980110e+02 0.0000000000e+00 0.0000e+00 1.0000e+00
       25  2    1    2    0    0 +0.0000000000e+00 +0.0000000000e+00 -3.8896380364e+02 4.0855579857e+02 1.2500000000e+02 0.0000e+00 0.0000e+00
      -15  1    3    3    0    0 +2.1918059482e+01 +2.9140377475e+01 -2.8673734093e+01 4.6420940174e+01 1.7770000000e+00 0.0000e+00 1.0000e+00
       15  1    3    3    0    0 -2.1918063349e+01 -2.9140373065e+01 -3.6029005495e+02 3.6213484266e+02 1.7770000000e+00 0.0000e+00 1.0000e+00
       22  1    3    3    0    0 +3.8671638103e-06 -4.4102084597e-06 -1.4561855760e-05 1.5698806890e-05 0.0000000000e+00 0.0000e+00 -1.0000e+00
<mgrwt>
<rscale>  2 0.12500000E+03</rscale>
<asrwt>0</asrwt>
<pdfrwt beam="1">  1       21 0.14405877E-02 0.12500000E+03</pdfrwt>
<pdfrwt beam="2">  1       21 0.58641155E-01 0.12500000E+03</pdfrwt>
<totfact> 0.52872923E+06</totfact>
</mgrwt>
</event>
<event>
 6      0 +4.1053447e-01 1.25000000e+02 7.54677100e-03 1.12640300e-01
       21 -1    0    0  502  501 +0.0000000000e+00 +0.0000000000e+00 +1.4912461002e+01 1.4912461002e+01 0.0000000000e+00 0.0000e+00 1.0000e+00
       21 -1    0    0  501  502 -0.0000000000e+00 -0.0000000000e+00 -2.6194536230e+02 2.6194536230e+02 0.0000000000e+00 0.0000e+00 1.0000e+00
       25  2    1    2    0    0 +0.0000000000e+00 +0.0000000000e+00 -2.4703290129e+02 2.7685782330e+02 1.2500000000e+02 0.0000e+00 0.0000e+00
      -15  1    3    3    0    0 -5.9129756932e+01 +1.7970461175e+01 -1.2086409692e+02 1.3575917384e+02 1.7770000000e+00 0.0000e+00 1.0000e+00
       15  1    3    3    0    0 +5.9741818371e+01 -1.8196529060e+01 -1.2529802218e+02 1.4001053755e+02 1.7770000000e+00 0.0000e+00 1.0000e+00
       22  1    3    3    0    0 -6.1206143968e-01 +2.2606788538e-01 -8.7078216883e-01 1.0881118878e+00 0.0000000000e+00 0.0000e+00 1.0000e+00
<mgrwt>
<rscale>  2 0.12500000E+03</rscale>
<asrwt>0</asrwt>
<pdfrwt beam="1">  1       21 0.21930092E-02 0.12500000E+03</pdfrwt>
<pdfrwt beam="2">  1       21 0.38521373E-01 0.12500000E+03</pdfrwt>
<totfact> 0.66667623E+06</totfact>
</mgrwt>
</event>
<event>
 6      0 +4.1053447e-01 1.25000000e+02 7.54677100e-03 1.12640300e-01
       21 -1    0    0  502  501 +0.0000000000e+00 +0.0000000000e+00 +1.4776315873e+01 1.4776315873e+01 0.0000000000e+00 0.0000e+00 1.0000e+00
       21 -1    0    0  501  502 -0.0000000000e+00 -0.0000000000e+00 -2.6435885870e+02 2.6435885870e+02 0.0000000000e+00 0.0000e+00 1.0000e+00
       25  2    1    2    0    0 +0.0000000000e+00 +0.0000000000e+00 -2.4958254283e+02 2.7913517457e+02 1.2500000000e+02 0.0000e+00 0.0000e+00
      -15  1    3    3    0    0 +1.4019397278e+01 +1.3403057945e+01 -2.3062265639e+02 2.3144362776e+02 1.7770000000e+00 0.0000e+00 -1.0000e+00
       15  1    3    3    0    0 -5.6002441823e+00 -1.1915622278e+01 +1.0552097078e+01 1.6966121268e+01 1.7770000000e+00 0.0000e+00 -1.0000e+00
       22  1    3    3    0    0 -8.4191530957e+00 -1.4874356677e+00 -2.9511983542e+01 3.0725425567e+01 0.0000000000e+00 0.0000e+00 1.0000e+00
<mgrwt>
<rscale>  2 0.12500000E+03</rscale>
<asrwt>0</asrwt>
<pdfrwt beam="1">  1       21 0.21729876E-02 0.12500000E+03</pdfrwt>
<pdfrwt beam="2">  1       21 0.38876304E-01 0.12500000E+03</pdfrwt>
<totfact> 0.66394672E+06</totfact>
</mgrwt>
</event>
<event>
 6      0 +4.1053447e-01 1.25000000e+02 7.54677100e-03 1.12640300e-01
       21 -1    0    0  502  501 +0.0000000000e+00 +0.0000000000e+00 +8.0007989322e+00 8.0007989322e+00 0.0000000000e+00 0.0000e+00 1.0000e+00
       21 -1    0    0  501  502 -0.0000000000e+00 -0.0000000000e+00 -4.8823249192e+02 4.8823249192e+02 0.0000000000e+00 0.0000e+00 1.0000e+00
       25  2    1    2    0    0 +0.0000000000e+00 +0.0000000000e+00 -4.8023169298e+02 4.9623329085e+02 1.2500000000e+02 0.0000e+00 0.0000e+00
      -15  1    3    3    0    0 -6.0386132694e+01 +6.3179845075e+00 -2.9855387836e+02 3.0467027745e+02 1.7770000000e+00 0.0000e+00 1.0000e+00
       15  1    3    3    0    0 +6.0386132800e+01 -6.3179841385e+00 -1.8167781048e+02 1.9156300924e+02 1.7770000000e+00 0.0000e+00 1.0000e+00
       22  1    3    3    0    0 -1.0603526930e-07 -3.6892227024e-07 -4.0616632705e-06 4.0797617140e-06 0.0000000000e+00 0.0000e+00 1.0000e+00
<mgrwt>
<rscale>  2 0.12500000E+03</rscale>
<asrwt>0</asrwt>
<pdfrwt beam="1">  1       21 0.11765877E-02 0.12500000E+03</pdfrwt>
<pdfrwt beam="2">  1       21 0.71798922E-01 0.12500000E+03</pdfrwt>
<totfact> 0.45607415E+06</totfact>
</mgrwt>
</event>
<event>
 6      0 +4.1053447e-01 1.25000000e+02 7.54677100e-03 1.12640300e-01
       21 -1    0    0  502  501 +0.0000000000e+00 +0.0000000000e+00 +3.5056441742e+02 3.5056441742e+02 0.0000000000e+00 0.0000e+00 -1.0000e+00
       21 -1    0    0  501  502 -0.0000000000e+00 -0.0000000000e+00 -1.1142745259e+01 1.1142745259e+01 0.0000000000e+00 0.0000e+00 -1.0000e+00
       25  2    1    2    0    0 +0.0000000000e+00 +0.0000000000e+00 +3.3942167216e+02 3.6170716267e+02 1.2500000000e+02 0.0000e+00 0.0000e+00
      -15  1    3    3    0    0 +3.8024681555e+01 +1.5627723872e+01 +3.3586168679e+01 5.3115822655e+01 1.7770000000e+00 0.0000e+00 1.0000e+00
       15  1    3    3    0    0 -3.8024681680e+01 -1.5627723974e+01 +3.0583550338e+02 3.0859133985e+02 1.7770000000e+00 0.0000e+00 1.0000e+00
       22  1    3    3    0    0 +1.2576874197e-07 +1.0208902820e-07 +1.5938439995e-07 2.2725169545e-07 0.0000000000e+00 0.0000e+00 1.0000e+00
<mgrwt>
<rscale>  2 0.12500000E+03</rscale>
<asrwt>0</asrwt>
<pdfrwt beam="1">  1       21 0.51553584E-01 0.12500000E+03</pdfrwt>
<pdfrwt beam="2">  1       21 0.16386392E-02 0.12500000E+03</pdfrwt>
<totfact> 0.57343581E+06</totfact>
</mgrwt>
</event>
<event>
 6      0 +4.1053447e-01 1.25000000e+02 7.54677100e-03 1.12640300e-01
       21 -1    0    0  502  501 +0.0000000000e+00 +0.0000000000e+00 +6.5590135160e+01 6.5590135160e+01 0.0000000000e+00 0.0000e+00 -1.0000e+00
       21 -1    0    0  501  502 -0.0000000000e+00 -0.0000000000e+00 -5.9555449771e+01 5.9555449771e+01 0.0000000000e+00 0.0000e+00 -1.0000e+00
       25  2    1    2    0    0 +0.0000000000e+00 +0.0000000000e+00 +6.0346853892e+00 1.2514558493e+02 1.2500000000e+02 0.0000e+00 0.0000e+00
      -15  1    3    3    0    0 +2.5108597839e+01 -1.1685157829e+01 +5.9083526627e+01 6.5276377401e+01 1.7770000000e+00 0.0000e+00 -1.0000e+00
       15  1    3    3    0    0 -2.5108598012e+01 +1.1685157955e+01 -5.3048841718e+01 5.9869207004e+01 1.7770000000e+00 0.0000e+00 -1.0000e+00
       22  1    3    3    0    0 +1.7308810093e-07 -1.2613178157e-07 +4.8069155049e-07 5.2624431942e-07 0.0000000000e+00 0.0000e+00 1.0000e+00
<mgrwt>
<rscale>  2 0.12500000E+03</rscale>
<asrwt>0</asrwt>
<pdfrwt beam="1">  1       21 0.96456082E-02 0.12500000E+03</pdfrwt>
<pdfrwt beam="2">  1       21 0.87581543E-02 0.12500000E+03</pdfrwt>
<totfact> 0.88971685E+06</totfact>
</mgrwt>
</event>
<event>
 6      0 +4.1053447e-01 1.25000000e+02 7.54677100e-03 1.12640300e-01
       21 -1    0    0  502  501 +0.0000000000e+00 +0.0000000000e+00 +7.0677412878e+01 7.0677412878e+01 0.0000000000e+00 0.0000e+00 -1.0000e+00
       21 -1    0    0  501  502 -0.0000000000e+00 -0.0000000000e+00 -5.5268717981e+01 5.5268717981e+01 0.0000000000e+00 0.0000e+00 -1.0000e+00
       25  2    1    2    0    0 +0.0000000000e+00 +0.0000000000e+00 +1.5408694897e+01 1.2594613086e+02 1.2500000000e+02 0.0000e+00 0.0000e+00
      -15  1    3    3    0    0 -9.3792432039e+00 +3.1415525128e+01 -4.5877926667e+01 5.6416728959e+01 1.7770000000e+00 0.0000e+00 1.0000e+00
       15  1    3    3    0    0 +9.3797073554e+00 -3.1415447098e+01 +6.1287395355e+01 6.9528496208e+01 1.7770000000e+00 0.0000e+00 1.0000e+00
       22  1    3    3    0    0 -4.6415148487e-04 -7.8029733745e-05 -7.7379185624e-04 9.0569259518e-04 0.0000000000e+00 0.0000e+00 1.0000e+00
<mgrwt>
<rscale>  2 0.12500000E+03</rscale>
<asrwt>0</asrwt>
<pdfrwt beam="1">  1       21 0.10393737E-01 0.12500000E+03</pdfrwt>
<pdfrwt beam="2">  1       21 0.81277527E-02 0.12500000E+03</pdfrwt>
<totfact> 0.88821518E+06</totfact>
</mgrwt>
</event>
<event>
 6      0 +4.1053447e-01 1.25000000e+02 7.54677100e-03 1.12640300e-01
       21 -1    0    0  502  501 +0.0000000000e+00 +0.0000000000e+00 +5.9791303103e+01 5.9791303103e+01 0.0000000000e+00 0.0000e+00 -1.0000e+00
       21 -1    0    0  501  502 -0.0000000000e+00 -0.0000000000e+00 -6.5331407701e+01 6.5331407701e+01 0.0000000000e+00 0.0000e+00 -1.0000e+00
       25  2    1    2    0    0 +0.0000000000e+00 +0.0000000000e+00 -5.5401045975e+00 1.2512271080e+02 1.2500000000e+02 0.0000e+00 0.0000e+00
      -15  1    3    3    0    0 -2.4008944546e+01 +4.2046809156e+01 +2.0885553717e+01 5.2761043029e+01 1.7770000000e+00 0.0000e+00 -1.0000e+00
       15  1    3    3    0    0 +2.7913425052e+01 -4.8699151281e+01 -3.0210183108e+01 6.3769738325e+01 1.7770000000e+00 0.0000e+00 -1.0000e+00
       22  1    3    3    0    0 -3.9044805057e+00 +6.6523421251e+00 +3.7845247937e+00 8.5919294506e+00 0.0000000000e+00 0.0000e+00 1.0000e+00
<mgrwt>
<rscale>  2 0.12500000E+03</rscale>
<asrwt>0</asrwt>
<pdfrwt beam="1">  1       21 0.87928387E-02 0.12500000E+03</pdfrwt>
<pdfrwt beam="2">  1       21 0.96075599E-02 0.12500000E+03</pdfrwt>
<totfact> 0.88976360E+06</totfact>
</mgrwt>
</event>
<event>
 6      0 +4.1053447e-01 1.25000000e+02 7.54677100e-03 1.12640300e-01
       21 -1    0    0  502  501 +0.0000000000e+00 +0.0000000000e+00 +7.3236052039e+01 7.3236052039e+01 0.0000000000e+00 0.0000e+00 -1.0000e+00
       21 -1    0    0  501  502 -0.0000000000e+00 -0.0000000000e+00 -5.3337801414e+01 5.3337801414e+01 0.0000000000e+00 0.0000e+00 -1.0000e+00
       25  2    1    2    0    0 +0.0000000000e+00 +0.0000000000e+00 +1.9898250626e+01 1.2657385345e+02 1.2500000000e+02 0.0000e+00 0.0000e+00
      -15  1    3    3    0    0 -4.9396482742e+01 +2.5107540908e+01 -1.9270588338e+01 5.8693393339e+01 1.7770000000e+00 0.0000e+00 1.0000e+00
       15  1    3    3    0    0 +4.9396482978e+01 -2.5107541004e+01 +3.9168839062e+01 6.7880459841e+01 1.7770000000e+00 0.0000e+00 1.0000e+00
       22  1    3    3    0    0 -2.3632868879e-07 +9.5519765131e-08 -9.7054785550e-08 2.7275429615e-07 0.0000000000e+00 0.0000e+00 1.0000e+00
<mgrwt>
<rscale>  2 0.12500000E+03</rscale>
<asrwt>0</asrwt>
<pdfrwt beam="1">  1       21 0.10770008E-01 0.12500000E+03</pdfrwt>
<pdfrwt beam="2">  1       21 0.78437943E-02 0.12500000E+03</pdfrwt>
<totfact> 0.88708944E+06</totfact>
</mgrwt>
</event>
<event>
 6      0 +4.1053447e-01 1.25000000e+02 7.54677100e-03 1.12640300e-01
       21 -1    0    0  502  501 +0.0000000000e+00 +0.0000000000e+00 +4.6374968656e+01 4.6374968656e+01 0.0000000000e+00 0.0000e+00 1.0000e+00
       21 -1    0    0  501  502 -0.0000000000e+00 -0.0000000000e+00 -8.4231862861e+01 8.4231862861e+01 0.0000000000e+00 0.0000e+00 1.0000e+00
       25  2    1    2    0    0 +0.0000000000e+00 +0.0000000000e+00 -3.7856894205e+01 1.3060683152e+02 1.2500000000e+02 0.0000e+00 0.0000e+00
      -15  1    3    3    0    0 +2.3479675208e+01 -3.9949973622e+01 -6.2710021482e+01 7.7993589888e+01 1.7770000000e+00 0.0000e+00 1.0000e+00
       15  1    3    3    0    0 -2.3472714492e+01 +3.9940356685e+01 +2.4844352480e+01 5.2598479036e+01 1.7770000000e+00 0.0000e+00 1.0000e+00
       22  1    3    3    0    0 -6.9607161986e-03 +9.6169369691e-03 +8.7747986056e-03 1.4762592496e-02 0.0000000000e+00 0.0000e+00 1.0000e+00
<mgrwt>
<rscale>  2 0.12500000E+03</rscale>
<asrwt>0</asrwt>
<pdfrwt beam="1">  1       21 0.68198484E-02 0.12500000E+03</pdfrwt>
<pdfrwt beam="2">  1       21 0.12387039E-01 0.12500000E+03</pdfrwt>
<totfact> 0.87987339E+06</totfact>
</mgrwt>
</event>
<event>
 6      0 +4.1053447e-01 1.25000000e+02 7.54677100e-03 1.12640300e-01
       21 -1    0    0  502  501 +0.0000000000e+00 +0.0000000000e+00 +1.7664484161e+01 1.7664484161e+01 0.0000000000e+00 0.0000e+00 -1.0000e+00
       21 -1    0    0  501  502 -0.0000000000e+00 -0.0000000000e+00 -2.2113580926e+02 2.2113580926e+02 0.0000000000e+00 0.0000e+00 -1.0000e+00
       25  2    1    2    0    0 +0.0000000000e+00 +0.0000000000e+00 -2.0347132510e+02 2.3880029342e+02 1.2500000000e+02 0.0000e+00 0.0000e+00
      -15  1    3    3    0    0 -3.4742911322e+01 -2.1278965551e+01 -1.2179333611e+02 1.2843924132e+02 1.7770000000e+00 0.0000e+00 1.0000e+00
       15  1    3    3    0    0 +4.3706146235e+01 +3.1931797596e+01 -4.2683491061e+01 6.8955819584e+01 1.7770000000e+00 0.0000e+00 1.0000e+00
       22  1    3    3    0    0 -8.9632349123e+00 -1.0652832045e+01 -3.8994497933e+01 4.1405232516e+01 0.0000000000e+00 0.0000e+00 1.0000e+00
<mgrwt>
<rscale>  2 0.12500000E+03</rscale>
<asrwt>0</asrwt>
<pdfrwt beam="1">  1       21 0.25977185E-02 0.12500000E+03</pdfrwt>
<pdfrwt beam="2">  1       21 0.32519969E-01 0.12500000E+03</pdfrwt>
<totfact> 0.71465126E+06</totfact>
</mgrwt>
</event>
<event>
 6      0 +4.1053447e-01 1.25000000e+02 7.54677100e-03 1.12640300e-01
       21 -1    0    0  502  501 +0.0000000000e+00 +0.0000000000e+00 +6.7320171375e+02 6.7320171375e+02 0.0000000000e+00 0.0000e+00 -1.0000e+00
       21 -1    0    0  501  502 -0.0000000000e+00 -0.0000000000e+00 -5.8024956268e+00 5.8024956268e+00 0.0000000000e+00 0.0000e+00 -1.0000e+00
       25  2    1    2    0    0 +0.0000000000e+00 +0.0000000000e+00 +6.6739921813e+02 6.7900420938e+02 1.2500000000e+02 0.0000e+00 0.0000e+00
      -15  1    3    3    0    0 +4.0561089816e+01 -3.3878220761e+00 +5.8962114763e+02 5.9102701698e+02 1.7770000000e+00 0.0000e+00 -1.0000e+00
       15  1    3    3    0    0 -2.0365767477e+01 -9.0734363818e-01 +3.7957305923e+01 4.3121949855e+01 1.7770000000e+00 0.0000e+00 -1.0000e+00
       22  1    3    3    0    0 -2.0195322339e+01 +4.2951657143e+00 +3.9820764676e+01 4.4855242639e+01 0.0000000000e+00 0.0000e+00 -1.0000e+00
<mgrwt>
<rscale>  2 0.12500000E+03</rscale>
<asrwt>0</asrwt>
<pdfrwt beam="1">  1       21 0.99000198E-01 0.12500000E+03</pdfrwt>
<pdfrwt beam="2">  1       21 0.85330865E-03 0.12500000E+03</pdfrwt>
<totfact> 0.33999905E+06</totfact>
</mgrwt>
</event>
<event>
 6      0 +4.1053447e-01 1.25000000e+02 7.54677100e-03 1.12640300e-01
       21 -1    0    0  502  501 +0.0000000000e+00 +0.0000000000e+00 +5.0413484563e+02 5.0413484563e+02 0.0000000000e+00 0.0000e+00 1.0000e+00
       21 -1    0    0  501  502 -0.0000000000e+00 -0.0000000000e+00 -7.7484229345e+00 7.7484229345e+00 0.0000000000e+00 0.0000e+00 1.0000e+00
       25  2    1    2    0    0 +0.0000000000e+00 +0.0000000000e+00 +4.9638642270e+02 5.1188326857e+02 1.2500000000e+02 0.0000e+00 0.0000e+00
      -15  1    3    3    0    0 -3.9471057572e+01 +4.6967027362e+01 +1.9987382093e+02 2.0908507375e+02 1.7770000000e+00 0.0000e+00 1.0000e+00
       15  1    3    3    0    0 +3.9471057566e+01 -4.6967027359e+01 +2.9651260171e+02 3.0279819476e+02 1.7770000000e+00 0.0000e+00 1.0000e+00
       22  1    3    3    0    0 +5.9888762400e-09 -2.5036979989e-09 +3.9602658969e-08 4.0131106884e-08 0.0000000000e+00 0.0000e+00 1.0000e+00
<mgrwt>
<rscale>  2 0.12500000E+03</rscale>
<asrwt>0</asrwt>
<pdfrwt beam="1">  1       21 0.74137455E-01 0.12500000E+03</pdfrwt>
<pdfrwt beam="2">  1       21 0.11394743E-02 0.12500000E+03</pdfrwt>
<totfact> 0.44453873E+06</totfact>
</mgrwt>
</event>
<event>
 6      0 +4.1053447e-01 1.25000000e+02 7.54677100e-03 1.12640300e-01
       21 -1    0    0  502  501 +0.0000000000e+00 +0.0000000000e+00 +1.8718061924e+02 1.8718061924e+02 0.0000000000e+00 0.0000e+00 -1.0000e+00
       21 -1    0    0  501  502 -0.0000000000e+00 -0.0000000000e+00 -2.0868880634e+01 2.0868880634e+01 0.0000000000e+00 0.0000e+00 -1.0000e+00
       25  2    1    2    0    0 +0.0000000000e+00 +0.0000000000e+00 +1.6631173861e+02 2.0804949987e+02 1.2500000000e+02 0.0000e+00 0.0000e+00
      -15  1    3    3    0    0 -1.2493626431e+01 -2.9434912127e+01 +1.7248584108e+02 1.7543382757e+02 1.7770000000e+00 0.0000e+00 1.0000e+00
       15  1    3    3    0    0 +1.2493627389e+01 +2.9434910699e+01 -6.1741014532e+00 3.2615670327e+01 1.7770000000e+00 0.0000e+00 1.0000e+00
       22  1    3    3    0    0 -9.5836462815e-07 +1.4279683730e-06 -1.0039659218e-06 1.9913573277e-06 0.0000000000e+00 0.0000e+00 -1.0000e+00
<mgrwt>
<rscale>  2 0.12500000E+03</rscale>
<asrwt>0</asrwt>
<pdfrwt beam="1">  1       21 0.27526561E-01 0.12500000E+03</pdfrwt>
<pdfrwt beam="2">  1       21 0.30689531E-02 0.12500000E+03</pdfrwt>
<totfact> 0.75660455E+06</totfact>
</mgrwt>
</event>
<event>
 6      0 +4.1053447e-01 1.25000000e+02 7.54677100e-03 1.12640300e-01
       21 -1    0    0  502  501 +0.0000000000e+00 +0.0000000000e+00 +2.2815197380e+01 2.2815197380e+01 0.0000000000e+00 0.0000e+00 1.0000e+00
       21 -1    0    0  501  502 -0.0000000000e+00 -0.0000000000e+00 -1.7121263231e+02 1.7121263231e+02 0.0000000000e+00 0.0000e+00 1.0000e+00
       25  2    1    2    0    0 +0.0000000000e+00 +0.0000000000e+00 -1.4839743493e+02 1.9402782969e+02 1.2500000000e+02 0.0000e+00 0.0000e+00
      -15  1    3    3    0    0 +3.8546474369e+01 +1.7494725684e+01 -1.4480837924e+02 1.5087915874e+02 1.7770000000e+00 0.0000e+00 1.0000e+00
       15  1    3    3    0    0 -3.8691898702e+01 -1.7532576146e+01 -3.0907663678e+00 4.2628216209e+01 1.7770000000e+00 0.0000e+00 1.0000e+00
       22  1    3    3    0    0 +1.4542433329e-01 +3.7850461821e-02 -4.9828931625e-01 5.2045474046e-01 0.0000000000e+00 0.0000e+00 1.0000e+00
<mgrwt>
<rscale>  2 0.12500000E+03</rscale>
<asrwt>0</asrwt>
<pdfrwt beam="1">  1       21 0.33551762E-02 0.12500000E+03</pdfrwt>
<pdfrwt beam="2">  1       21 0.25178328E-01 0.12500000E+03</pdfrwt>
<totfact> 0.77698585E+06</totfact>
</mgrwt>
</event>
<event>
 6      0 +4.1053447e-01 1.25000000e+02 7.54677100e-03 1.12640300e-01
       21 -1    0    0  502  501 +0.0000000000e+00 +0.0000000000e+00 +4.0624221262e+02 4.0624221262e+02 0.0000000000e+00 0.0000e+00 1.0000e+00
       21 -1    0    0  501  502 -0.0000000000e+00 -0.0000000000e+00 -9.6155689357e+00 9.6155689357e+00 0.0000000000e+00 0.0000e+00 1.0000e+00
       25  2    1    2    0    0 +0.0000000000e+00 +0.0000000000e+00 +3.9662664368e+02 4.1585778155e+02 1.2500000000e+02 0.0000e+00 0.0000e+00
      -15  1    3    3    0    0 +3.0835040244e+01 -9.5783170458e+00 +3.7624753825e+02 3.7763462717e+02 1.7770000000e+00 0.0000e+00 -1.0000e+00
       15  1    3    3    0    0 -3.0835040245e+01 +9.5783170468e+00 +2.0379105434e+01 3.8223154392e+01 1.7770000000e+00 0.0000e+00 -1.0000e+00
       22  1    3    3    0    0 +4.7132814248e-10 -9.5149424979e-10 +6.9687117031e-09 7.0491442266e-09 0.0000000000e+00 0.0000e+00 1.0000e+00
<mgrwt>
<rscale>  2 0.12500000E+03</rscale>
<asrwt>0</asrwt>
<pdfrwt beam="1">  1       21 0.59741490E-01 0.12500000E+03</pdfrwt>
<pdfrwt beam="2">  1       21 0.14140545E-02 0.12500000E+03</pdfrwt>
<totfact> 0.52216055E+06</totfact>
</mgrwt>
</event>
<event>
 6      0 +4.1053447e-01 1.25000000e+02 7.54677100e-03 1.12640300e-01
       21 -1    0    0  502  501 +0.0000000000e+00 +0.0000000000e+00 +9.3957731557e+00 9.3957731557e+00 0.0000000000e+00 0.0000e+00 -1.0000e+00
       21 -1    0    0  501  502 -0.0000000000e+00 -0.0000000000e+00 -4.1574545652e+02 4.1574545652e+02 0.0000000000e+00 0.0000e+00 -1.0000e+00
       25  2    1    2    0    0 +0.0000000000e+00 +0.0000000000e+00 -4.0634968337e+02 4.2514122968e+02 1.2500000000e+02 0.0000e+00 0.0000e+00
      -15  1    3    3    0    0 +3.5899994271e+01 -4.4123334493e+01 -2.8968850818e+02 2.9522579111e+02 1.7770000000e+00 0.0000e+00 1.0000e+00
       15  1    3    3    0    0 -3.5986875358e+01 +4.4177962921e+01 -1.1605559610e+02 1.2930122474e+02 1.7770000000e+00 0.0000e+00 1.0000e+00
       22  1    3    3    0    0 +8.6881087173e-02 -5.4628427537e-02 -6.0557911032e-01 6.1421384489e-01 0.0000000000e+00 0.0000e+00 -1.0000e+00
<mgrwt>
<rscale>  2 0.12500000E+03</rscale>
<asrwt>0</asrwt>
<pdfrwt beam="1">  1       21 0.13817315E-02 0.12500000E+03</pdfrwt>
<pdfrwt beam="2">  1       21 0.61139032E-01 0.12500000E+03</pdfrwt>
<totfact> 0.51395594E+06</totfact>
</mgrwt>
</event>
<event>
 6      0 +4.1053447e-01 1.25000000e+02 7.54677100e-03 1.12640300e-01
       21 -1    0    0  502  501 +0.0000000000e+00 +0.0000000000e+00 +3.5622662537e+01 3.5622662537e+01 0.0000000000e+00 0.0000e+00 -1.0000e+00
       21 -1    0    0  501  502 -0.0000000000e+00 -0.0000000000e+00 -1.0965631769e+02 1.0965631769e+02 0.0000000000e+00 0.0000e+00 -1.0000e+00
       25  2    1    2    0    0 +0.0000000000e+00 +0.0000000000e+00 -7.4033655148e+01 1.4527898022e+02 1.2500000000e+02 0.0000e+00 0.0000e+00
      -15  1    3    3    0    0 -4.4551935993e+01 +3.8635560247e+00 +2.2601468284e+00 4.4811472399e+01 1.7770000000e+00 0.0000e+00 1.0000e+00
       15  1    3    3    0    0 +5.0196109587e+01 -2.1093950031e+00 -7.9256948818e+01 9.3855850269e+01 1.7770000000e+00 0.0000e+00 1.0000e+00
       22  1    3    3    0    0 -5.6441735939e+00 -1.7541610215e+00 +2.9631468384e+00 6.6116575557e+00 0.0000000000e+00 0.0000e+00 1.0000e+00
<mgrwt>
<rscale>  2 0.12500000E+03</rscale>
<asrwt>0</asrwt>
<pdfrwt beam="1">  1       21 0.52386268E-02 0.12500000E+03</pdfrwt>
<pdfrwt beam="2">  1       21 0.16125929E-01 0.12500000E+03</pdfrwt>
<totfact> 0.85426316E+06</totfact>
</mgrwt>
</event>
<event>
 6      0 +4.1053447e-01 1.25000000e+02 7.54677100e-03 1.12640300e-01
       21 -1    0    0  502  501 +0.0000000000e+00 +0.0000000000e+00 +5.9079620472e+00 5.9079620472e+00 0.0000000000e+00 0.0000e+00 1.0000e+00
       21 -1    0    0  501  502 -0.0000000000e+00 -0.0000000000e+00 -6.6118400369e+02 6.6118400369e+02 0.0000000000e+00 0.0000e+00 1.0000e+00
       25  2    1    2    0    0 +0.0000000000e+00 +0.0000000000e+00 -6.5527604164e+02 6.6709196574e+02 1.2500000000e+02 0.0000e+00 0.0000e+00
      -15  1    3    3    0    0 +5.6763124587e+01 -2.5060450379e+01 -2.8878977147e+02 2.9538579573e+02 1.7770000000e+00 0.0000e+00 -1.0000e+00
       15  1    3    3    0    0 -5.6763322719e+01 +2.5060541342e+01 -3.6648515207e+02 3.7170503085e+02 1.7770000000e+00 0.0000e+00 -1.0000e+00
       22  1    3    3    0    0 +1.9813183601e-04 -9.0962626946e-05 -1.1179448618e-03 1.1390044504e-03 0.0000000000e+00 0.0000e+00 1.0000e+00
<mgrwt>
<rscale>  2 0.12500000E+03</rscale>
<asrwt>0</asrwt>
<pdfrwt beam="1">  1       21 0.86881815E-03 0.12500000E+03</pdfrwt>
<pdfrwt beam="2">  1       21 0.97232919E-01 0.12500000E+03</pdfrwt>
<totfact> 0.34630097E+06</totfact>
</mgrwt>
</event>
<event>
 6      0 +4.1053447e-01 1.25000000e+02 7.54677100e-03 1.12640300e-01
       21 -1    0    0  502  501 +0.0000000000e+00 +0.0000000000e+00 +1.0880568132e+02 1.0880568132e+02 0.0000000000e+00 0.0000e+00 1.0000e+00
       21 -1    0    0  501  502 -0.0000000000e+00 -0.0000000000e+00 -3.5901158402e+01 3.5901158402e+01 0.0000000000e+00 0.0000e+00 1.0000e+00
       25  2    1    2    0    0 +0.0000000000e+00 +0.0000000000e+00 +7.2904522913e+01 1.4470683972e+02 1.2500000000e+02 0.0000e+00 0.0000e+00
      -15  1    3    3    0    0 -5.8507030041e+01 +1.6337643665e+01 +1.9552839917e+01 6.3839348701e+01 1.7770000000e+00 0.0000e+00 1.0000e+00
       15  1    3    3    0    0 +5.8507030560e+01 -1.6337643812e+01 +5.3351682502e+01 8.0867490285e+01 1.7770000000e+00 0.0000e+00 1.0000e+00
       22  1    3    3    0    0 -5.1975522275e-07 +1.4699622654e-07 +4.9351093301e-07 7.3164637851e-07 0.0000000000e+00 0.0000e+00 -1.0000e+00
<mgrwt>
<rscale>  2 0.12500000E+03</rscale>
<asrwt>0</asrwt>
<pdfrwt beam="1">  1       21 0.16000835E-01 0.12500000E+03</pdfrwt>
<pdfrwt beam="2">  1       21 0.52795822E-02 0.12500000E+03</pdfrwt>
<totfact> 0.85524716E+06</totfact>
</mgrwt>
</event>
<event>
 6      0 +4.1053447e-01 1.25000000e+02 7.54677100e-03 1.12640300e-01
       21 -1    0    0  502  501 +0.0000000000e+00 +0.0000000000e+00 +7.3812783527e+02 7.3812783527e+02 0.0000000000e+00 0.0000e+00 1.0000e+00
       21 -1    0    0  501  502 -0.0000000000e+00 -0.0000000000e+00 -5.2921049896e+00 5.2921049896e+00 0.0000000000e+00 0.0000e+00 1.0000e+00
       25  2    1    2    0    0 +0.0000000000e+00 +0.0000000000e+00 +7.3283573028e+02 7.4341994026e+02 1.2500000000e+02 0.0000e+00 0.0000e+00
      -15  1    3    3    0    0 -6.0012818354e+01 -6.7633405967e+00 +4.6146412220e+02 4.6540259448e+02 1.7770000000e+00 0.0000e+00 -1.0000e+00
       15  1    3    3    0    0 +6.0015387918e+01 +6.7635350152e+00 +2.7135313807e+02 2.7799869687e+02 1.7770000000e+00 0.0000e+00 -1.0000e+00
       22  1    3    3    0    0 -2.5695638199e-03 -1.9441854629e-04 +1.8469988613e-02 1.8648885655e-02 0.0000000000e+00 0.0000e+00 1.0000e+00
<mgrwt>
<rscale>  2 0.12500000E+03</rscale>
<asrwt>0</asrwt>
<pdfrwt beam="1">  1       21 0.10854814E+00 0.12500000E+03</pdfrwt>
<pdfrwt beam="2">  1       21 0.77825124E-03 0.12500000E+03</pdfrwt>
<totfact> 0.30799910E+06</totfact>
</mgrwt>
</event>
<event>
 6      0 +4.1053447e-01 1.25000000e+02 7.54677100e-03 1.12640300e-01
       21 -1    0    0  502  501 +0.0000000000e+00 +0.0000000000e+00 +1.0348387389e+03 1.0348387389e+03 0.0000000000e+00 0.0000e+00 1.0000e+00
       21 -1    0    0  501  502 -0.0000000000e+00 -0.0000000000e+00 -3.7747427240e+00 3.7747427240e+00 0.0000000000e+00 0.0000e+00 1.0000e+00
       25  2    1    2    0    0 +0.0000000000e+00 +0.0000000000e+00 +1.0310639961e+03 1.0386134816e+03 1.2500000000e+02 0.0000e+00 0.0000e+00
      -15  1    3    3    0    0 -5.9688736410e+01 -4.5690767593e+00 +6.6393581748e+02 6.6663149429e+02 1.7770000000e+00 0.0000e+00 1.0000e+00
       15  1    3    3    0    0 +5.9690840274e+01 +4.5700491167e+00 +3.6708564568e+02 3.7193939124e+02 1.7770000000e+00 0.0000e+00 1.0000e+00
       22  1    3    3    0    0 -2.1038633543e-03 -9.7235743045e-04 +4.2529389000e-02 4.2592495216e-02 0.0000000000e+00 0.0000e+00 1.0000e+00
<mgrwt>
<rscale>  2 0.12500000E+03</rscale>
<asrwt>0</asrwt>
<pdfrwt beam="1">  1       21 0.15218197E+00 0.12500000E+03</pdfrwt>
<pdfrwt beam="2">  1       21 0.55510994E-03 0.12500000E+03</pdfrwt>
<totfact> 0.20056585E+06</totfact>
</mgrwt>
</event>
<event>
 6      0 +4.1053447e-01 1.25000000e+02 7.54677100e-03 1.12640300e-01
       21 -1    0    0  502  501 +0.0000000000e+00 +0.0000000000e+00 +7.5994833269e+00 7.5994833269e+00 0.0000000000e+00 0.0000e+00 1.0000e+00
       21 -1    0    0  501  502 -0.0000000000e+00 -0.0000000000e+00 -5.1401520761e+02 5.1401520761e+02 0.0000000000e+00 0.0000e+00 1.0000e+00
       25  2    1    2    0    0 +0.0000000000e+00 +0.0000000000e+00 -5.0641572428e+02 5.2161469094e+02 1.2500000000e+02 0.0000e+00 0.0000e+00
      -15  1    3    3    0    0 +4.4302044127e+01 -4.1136023111e+00 -4.3622249616e+02 4.3848924357e+02 1.7770000000e+00 0.0000e+00 -1.0000e+00
       15  1    3    3    0    0 -4.4302044640e+01 +4.1136022802e+00 -7.0193223891e+01 8.3125443110e+01 1.7770000000e+00 0.0000e+00 -1.0000e+00
       22  1    3    3    0    0 +5.1291707728e-07 +3.0858652452e-08 -4.1214500005e-06 4.1533584352e-06 0.0000000000e+00 0.0000e+00 1.0000e+00
<mgrwt>
<rscale>  2 0.12500000E+03</rscale>
<asrwt>0</asrwt>
<pdfrwt beam="1">  1       21 0.11175711E-02 0.12500000E+03</pdfrwt>
<pdfrwt beam="2">  1       21 0.75590470E-01 0.12500000E+03</pdfrwt>
<totfact> 0.43756487E+06</totfact>
</mgrwt>
</event>
<event>
 6      0 +4.1053447e-01 1.25000000e+02 7.54677100e-03 1.12640300e-01
       21 -1    0    0  502  501 +0.0000000000e+00 +0.0000000000e+00 +2.5140745765e+02 2.5140745765e+02 0.0000000000e+00 0.0000e+00 1.0000e+00
       21 -1    0    0  501  502 -0.0000000000e+00 -0.0000000000e+00 -1.5537526358e+01 1.5537526358e+01 0.0000000000e+00 0.0000e+00 1.0000e+00
       25  2    1    2    0    0 +0.0000000000e+00 +0.0000000000e+00 +2.3586993130e+02 2.6694498401e+02 1.2500000000e+02 0.0000e+00 0.0000e+00
      -15  1    3    3    0    0 -5.4109430771e+01 +2.2881979852e+01 +7.2548577188e+01 9.3369530798e+01 1.7770000000e+00 0.0000e+00 1.0000e+00
       15  1    3    3    0    0 +5.4109430847e+01 -2.2881979856e+01 +1.6332135407e+02 1.7357545314e+02 1.7770000000e+00 0.0000e+00 1.0000e+00
       22  1    3    3    0    0 -7.6193317675e-08 +3.5084258960e-09 +7.2254341518e-08 1.0506388808e-07 0.0000000000e+00 0.0000e+00 1.0000e+00
<mgrwt>
<rscale>  2 0.12500000E+03</rscale>
<asrwt>0</asrwt>
<pdfrwt beam="1">  1       21 0.36971683E-01 0.12500000E+03</pdfrwt>
<pdfrwt beam="2">  1       21 0.22849305E-02 0.12500000E+03</pdfrwt>
<totfact> 0.67872788E+06</totfact>
</mgrwt>
</event>
<event>
 6      0 +4.1053447e-01 1.25000000e+02 7.54677100e-03 1.12640300e-01
       21 -1    0    0  502  501 +0.0000000000e+00 +0.0000000000e+00 +3.8034386217e+02 3.8034386217e+02 0.0000000000e+00 0.0000e+00 1.0000e+00
       21 -1    0    0  501  502 -0.0000000000e+00 -0.0000000000e+00 -1.0270311654e+01 1.0270311654e+01 0.0000000000e+00 0.0000e+00 1.0000e+00
       25  2    1    2    0    0 +0.0000000000e+00 +0.0000000000e+00 +3.7007355052e+02 3.9061417382e+02 1.2500000000e+02 0.0000e+00 0.0000e+00
      -15  1    3    3    0    0 +1.2025808129e+01 -5.2778234182e+01 +2.8250697344e+02 2.8765171621e+02 1.7770000000e+00 0.0000e+00 -1.0000e+00
       15  1    3    3    0    0 -1.1929406575e+01 +5.2320825587e+01 +8.6826571758e+01 1.0208717267e+02 1.7770000000e+00 0.0000e+00 -1.0000e+00
       22  1    3    3    0    0 -9.6401553765e-02 +4.5740859547e-01 +7.4000538431e-01 8.7528501163e-01 0.0000000000e+00 0.0000e+00 1.0000e+00
<mgrwt>
<rscale>  2 0.12500000E+03</rscale>
<asrwt>0</asrwt>
<pdfrwt beam="1">  1       21 0.55932912E-01 0.12500000E+03</pdfrwt>
<pdfrwt beam="2">  1       21 0.15103402E-02 0.12500000E+03</pdfrwt>
<totfact> 0.54531883E+06</totfact>
</mgrwt>
</event>
<event>
 6      0 +4.1053447e-01 1.25000000e+02 7.54677100e-03 1.12640300e-01
       21 -1    0    0  502  501 +0.0000000000e+00 +0.0000000000e+00 +3.9373553254e+01 3.9373553254e+01 0.0000000000e+00 0.0000e+00 1.0000e+00
       21 -1    0    0  501  502 -0.0000000000e+00 -0.0000000000e+00 -9.9209994454e+01 9.9209994454e+01 0.0000000000e+00 0.0000e+00 1.0000e+00
       25  2    1    2    0    0 +0.0000000000e+00 +0.0000000000e+00 -5.9836441200e+01 1.3858354771e+02 1.2500000000e+02 0.0000e+00 0.0000e+00
      -15  1    3    3    0    0 +5.2286373983e+01 +2.4603623433e+01 -4.0446579520e+01 7.0556974950e+01 1.7770000000e+00 0.0000e+00 1.0000e+00
       15  1    3    3    0    0 -5.5555433661e+01 -2.5169062118e+01 -1.5579536707e+01 6.2974340728e+01 1.7770000000e+00 0.0000e+00 1.0000e+00
       22  1    3    3    0    0 +3.2690596784e+00 +5.6543868482e-01 -3.8103249715e+00 5.0522320292e+00 0.0000000000e+00 0.0000e+00 -1.0000e+00
<mgrwt>
<rscale>  2 0.12500000E+03</rscale>
<asrwt>0</asrwt>
<pdfrwt beam="1">  1       21 0.57902284E-02 0.12500000E+03</pdfrwt>
<pdfrwt beam="2">  1       21 0.14589705E-01 0.12500000E+03</pdfrwt>
<totfact> 0.86584810E+06</totfact>
</mgrwt>
</event>
<event>
 6      0 +4.1053447e-01 1.25000000e+02 7.54677100e-03 1.12640300e-01
       21 -1    0    0  502  501 +0.0000000000e+00 +0.0000000000e+00 +2.2630091258e+01 2.2630091258e+01 0.0000000000e+00 0.0000e+00 -1.0000e+00
       21 -1    0    0  501  502 -0.0000000000e+00 -0.0000000000e+00 -1.7261309093e+02 1.7261309093e+02 0.0000000000e+00 0.0000e+00 -1.0000e+00
       25  2    1    2    0    0 +0.0000000000e+00 +0.0000000000e+00 -1.4998299967e+02 1.9524318219e+02 1.2500000000e+02 0.0000e+00 0.0000e+00
      -15  1    3    3    0    0 -2.8223864554e+01 +2.1594094705e+01 -1.5524835778e+02 1.5927366944e+02 1.7770000000e+00 0.0000e+00 1.0000e+00
       15  1    3    3    0    0 +2.8222630369e+01 -2.1592969809e+01 +5.2663656558e+00 3.5967562419e+01 1.7770000000e+00 0.0000e+00 1.0000e+00
       22  1    3    3    0    0 +1.2341852250e-03 -1.1248952959e-03 -1.0075415765e-03 1.9503185957e-03 0.0000000000e+00 0.0000e+00 -1.0000e+00
<mgrwt>
<rscale>  2 0.12500000E+03</rscale>
<asrwt>0</asrwt>
<pdfrwt beam="1">  1       21 0.33279546E-02 0.12500000E+03</pdfrwt>
<pdfrwt beam="2">  1       21 0.25384278E-01 0.12500000E+03</pdfrwt>
<totfact> 0.77518601E+06</totfact>
</mgrwt>
</event>
<event>
 6      0 +4.1053447e-01 1.25000000e+02 7.54677100e-03 1.12640300e-01
       21 -1    0    0  502  501 +0.0000000000e+00 +0.0000000000e+00 +2.3268654458e+01 2.3268654458e+01 0.0000000000e+00 0.0000e+00 -1.0000e+00
       21 -1    0    0  501  502 -0.0000000000e+00 -0.0000000000e+00 -1.6787605863e+02 1.6787605863e+02 0.0000000000e+00 0.0000e+00 -1.0000e+00
       25  2    1    2    0    0 +0.0000000000e+00 +0.0000000000e+00 -1.4460740417e+02 1.9114471309e+02 1.2500000000e+02 0.0000e+00 0.0000e+00
      -15  1    3    3    0    0 +5.6729515867e+01 +6.7922181638e+00 -3.4651899408e+01 6.6845224659e+01 1.7770000000e+00 0.0000e+00 1.0000e+00
       15  1    3    3    0    0 -5.3953884212e+01 -4.1708980720e+00 -1.0230014587e+02 1.1574495923e+02 1.7770000000e+00 0.0000e+00 1.0000e+00
       22  1    3    3    0    0 -2.7756316547e+00 -2.6213200919e+00 -7.6553588835e+00 8.5545291946e+00 0.0000000000e+00 0.0000e+00 -1.0000e+00
<mgrwt>
<rscale>  2 0.12500000E+03</rscale>
<asrwt>0</asrwt>
<pdfrwt beam="1">  1       21 0.34218609E-02 0.12500000E+03</pdfrwt>
<pdfrwt beam="2">  1       21 0.24687656E-01 0.12500000E+03</pdfrwt>
<totfact> 0.78126956E+06</totfact>
</mgrwt>
</event>
<event>
 6      0 +4.1053447e-01 1.25000000e+02 7.54677100e-03 1.12640300e-01
       21 -1    0    0  502  501 +0.0000000000e+00 +0.0000000000e+00 +1.0523464775e+02 1.0523464775e+02 0.0000000000e+00 0.0000e+00 -1.0000e+00
       21 -1    0    0  501  502 -0.0000000000e+00 -0.0000000000e+00 -3.7119428664e+01 3.7119428664e+01 0.0000000000e+00 0.0000e+00 -1.0000e+00
       25  2    1    2    0    0 +0.0000000000e+00 +0.0000000000e+00 +6.8115219081e+01 1.4235407641e+02 1.2500000000e+02 0.0000e+00 0.0000e+00
      -15  1    3    3    0    0 +1.5959437737e+01 -4.2567441045e+01 -1.4745075977e+01 4.7825366538e+01 1.7770000000e+00 0.0000e+00 1.0000e+00
       15  1    3    3    0    0 -1.5959432109e+01 +4.2567404474e+01 +8.2860228499e+01 9.4528633720e+01 1.7770000000e+00 0.0000e+00 1.0000e+00
       22  1    3    3    0    0 -5.6279225609e-06 +3.6570399224e-05 +6.6557673471e-05 7.6151109707e-05 0.0000000000e+00 0.0000e+00 1.0000e+00
<mgrwt>
<rscale>  2 0.12500000E+03</rscale>
<asrwt>0</asrwt>
<pdfrwt beam="1">  1       21 0.15475683E-01 0.12500000E+03</pdfrwt>
<pdfrwt beam="2">  1       21 0.54587396E-02 0.12500000E+03</pdfrwt>
<totfact> 0.85932395E+06</totfact>
</mgrwt>
</event>
<event>
 6      0 +4.1053447e-01 1.25000000e+02 7.54677100e-03 1.12640300e-01
       21 -1    0    0  502  501 +0.0000000000e+00 +0.0000000000e+00 +2.6053021926e+02 2.6053021926e+02 0.0000000000e+00 0.0000e+00 -1.0000e+00
       21 -1    0    0  501  502 -0.0000000000e+00 -0.0000000000e+00 -1.4993462221e+01 1.4993462221e+01 0.0000000000e+00 0.0000e+00 -1.0000e+00
       25  2    1    2    0    0 +0.0000000000e+00 +0.0000000000e+00 +2.4553675704e+02 2.7552368149e+02 1.2500000000e+02 0.0000e+00 0.0000e+00
      -15  1    3    3    0    0 -3.7402664733e+01 -2.9265370759e+01 +3.3305982310e+01 5.8033330435e+01 1.7770000000e+00 0.0000e+00 1.0000e+00
       15  1    3    3    0    0 +2.8469941583e+01 +2.2526612782e+01 +1.6346679224e+02 1.6745905694e+02 1.7770000000e+00 0.0000e+00 1.0000e+00
       22  1    3    3    0    0 +8.9327231502e+00 +6.7387579771e+00 +4.8763982460e+01 5.0031294080e+01 0.0000000000e+00 0.0000e+00 1.0000e+00
<mgrwt>
<rscale>  2 0.12500000E+03</rscale>
<asrwt>0</asrwt>
<pdfrwt beam="1">  1       21 0.38313265E-01 0.12500000E+03</pdfrwt>
<pdfrwt beam="2">  1       21 0.22049211E-02 0.12500000E+03</pdfrwt>
<totfact> 0.66828187E+06</totfact>
</mgrwt>
</event>
<event>
 6      0 +4.1053447e-01 1.25000000e+02 7.54677100e-03 1.12640300e-01
       21 -1    0    0  502  501 +0.0000000000e+00 +0.0000000000e+00 +2.5554643067e+01 2.5554643067e+01 0.0000000000e+00 0.0000e+00 1.0000e+00
       21 -1    0    0  501  502 -0.0000000000e+00 -0.0000000000e+00 -1.5285871886e+02 1.5285871886e+02 0.0000000000e+00 0.0000e+00 1.0000e+00
       25  2    1    2    0    0 +0.0000000000e+00 +0.0000000000e+00 -1.2730407579e+02 1.7841336192e+02 1.2500000000e+02 0.0000e+00 0.0000e+00
      -15  1    3    3    0    0 +1.0656064863e+01 +1.0642300792e+01 +2.2888934727e+01 2.7456717691e+01 1.7770000000e+00 0.0000e+00 1.0000e+00
       15  1    3    3    0    0 -1.0656064846e+01 -1.0642300828e+01 -1.5019301053e+02 1.5095664420e+02 1.7770000000e+00 0.0000e+00 1.0000e+00
       22  1    3    3    0    0 -1.6768897566e-08 +3.5232880592e-08 +1.0847749129e-08 4.0499697054e-08 0.0000000000e+00 0.0000e+00 -1.0000e+00
<mgrwt>
<rscale>  2 0.12500000E+03</rscale>
<asrwt>0</asrwt>
<pdfrwt beam="1">  1       21 0.37580358E-02 0.12500000E+03</pdfrwt>
<pdfrwt beam="2">  1       21 0.22479223E-01 0.12500000E+03</pdfrwt>
<totfact> 0.80049870E+06</totfact>
</mgrwt>
</event>
<event>
 6      0 +4.1053447e-01 1.25000000e+02 7.54677100e-03 1.12640300e-01
       21 -1    0    0  502  501 +0.0000000000e+00 +0.0000000000e+00 +5.5329629936e+00 5.5329629936e+00 0.0000000000e+00 0.0000e+00 1.0000e+00
       21 -1    0    0  501  502 -0.0000000000e+00 -0.0000000000e+00 -7.0599604670e+02 7.0599604670e+02 0.0000000000e+00 0.0000e+00 1.0000e+00
       25  2    1    2    0    0 +0.0000000000e+00 +0.0000000000e+00 -7.0046308371e+02 7.1152900969e+02 1.2500000000e+02 0.0000e+00 0.0000e+00
      -15  1    3    3    0    0 -5.1434197232e+00 +5.5288056706e+01 -5.1318859593e+02 5.1618690094e+02 1.7770000000e+00 0.0000e+00 -1.0000e+00
       15  1    3    3    0    0 +5.1433672304e+00 -5.5289680368e+01 -1.8726181654e+02 1.9532933380e+02 1.7770000000e+00 0.0000e+00 -1.0000e+00
       22  1    3    3    0    0 +5.2492877294e-05 +1.6236621043e-03 -1.2671467227e-02 1.2775175764e-02 0.0000000000e+00 0.0000e+00 1.0000e+00
<mgrwt>
<rscale>  2 0.12500000E+03</rscale>
<asrwt>0</asrwt>
<pdfrwt beam="1">  1       21 0.81367137E-03 0.12500000E+03</pdfrwt>
<pdfrwt beam="2">  1       21 0.10382291E+00 0.12500000E+03</pdfrwt>
<totfact> 0.32333372E+06</totfact>
</mgrwt>
</event>
<event>
 6      0 +4.1053447e-01 1.25000000e+02 7.54677100e-03 1.12640300e-01
       21 -1    0    0  502  501 +0.0000000000e+00 +0.0000000000e+00 +4.8288633199e+00 4.8288633199e+00 0.0000000000e+00 0.0000e+00 -1.0000e+00
       21 -1    0    0  501  502 -0.0000000000e+00 -0.0000000000e+00 -8.0893778540e+02 8.0893778540e+02 0.0000000000e+00 0.0000e+00 -1.0000e+00
       25  2    1    2    0    0 +0.0000000000e+00 +0.0000000000e+00 -8.0410892208e+02 8.1376664872e+02 1.2500000000e+02 0.0000e+00 0.0000e+00
      -15  1    3    3    0    0 +2.1048227408e+01 -3.6230807568e+01 -1.3038106175e+02 1.3696013393e+02 1.7770000000e+00 0.0000e+00 -1.0000e+00
       15  1    3    3    0    0 -2.3863299475e+01 +4.3562727575e+01 -6.4808086453e+02 6.4998394826e+02 1.7770000000e+00 0.0000e+00 -1.0000e+00
       22  1    3    3    0    0 +2.8150720662e+00 -7.3319200068e+00 -2.5646995791e+01 2.6822566522e+01 0.0000000000e+00 0.0000e+00 1.0000e+00
<mgrwt>
<rscale>  2 0.12500000E+03</rscale>
<asrwt>0</asrwt>
<pdfrwt beam="1">  1       21 0.71012781E-03 0.12500000E+03</pdfrwt>
<pdfrwt beam="2">  1       21 0.11896130E+00 0.12500000E+03</pdfrwt>
<totfact> 0.27714045E+06</totfact>
</mgrwt>
</event>
<event>
 6      0 +4.1053447e-01 1.25000000e+02 7.54677100e-03 1.12640300e-01
       21 -1    0    0  502  501 +0.0000000000e+00 +0.0000000000e+00 +1.1658346446e+01 1.1658346446e+01 0.0000000000e+00 0.0000e+00 -1.0000e+00
       21 -1    0    0  501  502 -0.0000000000e+00 -0.0000000000e+00 -3.3506038081e+02 3.3506038081e+02 0.0000000000e+00 0.0000e+00 -1.0000e+00
       25  2    1    2    0    0 +0.0000000000e+00 +0.0000000000e+00 -3.2340203437e+02 3.4671872726e+02 1.2500000000e+02 0.0000e+00 0.0000e+00
      -15  1    3    3    0    0 -3.1272664558e+01 -3.9483365820e+01 -8.4324364210e+01 9.8237833106e+01 1.7770000000e+00 0.0000e+00 -1.0000e+00
       15  1    3    3    0    0 -6.3969722674e+00 +2.7254441421e+01 -1.0402306073e+02 1.0773894711e+02 1.7770000000e+00 0.0000e+00 -1.0000e+00
       22  1    3    3    0    0 +3.7669636825e+01 +1.2228924399e+01 -1.3505460945e+02 1.4074194707e+02 0.0000000000e+00 0.0000e+00 -1.0000e+00
<mgrwt>
<rscale>  2 0.12500000E+03</rscale>
<asrwt>0</asrwt>
<pdfrwt beam="1">  1       21 0.17144626E-02 0.12500000E+03</pdfrwt>
<pdfrwt beam="2">  1       21 0.49273590E-01 0.12500000E+03</pdfrwt>
<totfact> 0.58866270E+06</totfact>
</mgrwt>
</event>
<event>
 6      0 +4.1053447e-01 1.25000000e+02 7.54677100e-03 1.12640300e-01
       21 -1    0    0  502  501 +0.0000000000e+00 +0.0000000000e+00 +1.0386151852e+02 1.0386151852e+02 0.0000000000e+00 0.0000e+00 -1.0000e+00
       21 -1    0    0  501  502 -0.0000000000e+00 -0.0000000000e+00 -3.7610176085e+01 3.7610176085e+01 0.0000000000e+00 0.0000e+00 -1.0000e+00
       25  2    1    2    0    0 +0.0000000000e+00 +0.0000000000e+00 +6.6251342435e+01 1.4147169461e+02 1.2500000000e+02 0.0000e+00 0.0000e+00
      -15  1    3    3    0    0 -2.8784741576e+01 +4.2397770180e+01 -7.3177781693e+00 5.1796137600e+01 1.7770000000e+00 0.0000e+00 1.0000e+00
       15  1    3    3    0    0 +2.8784741563e+01 -4.2397770318e+01 +7.3569120400e+01 8.9675556760e+01 1.7770000000e+00 0.0000e+00 1.0000e+00
       22  1    3    3    0    0 +1.3398828695e-08 +1.3758140912e-07 +2.0176883312e-07 2.4457889272e-07 0.0000000000e+00 0.0000e+00 -1.0000e+00
<mgrwt>
<rscale>  2 0.12500000E+03</rscale>
<asrwt>0</asrwt>
<pdfrwt beam="1">  1       21 0.15273753E-01 0.12500000E+03</pdfrwt>
<pdfrwt beam="2">  1       21 0.55309082E-02 0.12500000E+03</pdfrwt>
<totfact> 0.86085495E+06</totfact>
</mgrwt>
</event>
<event>
 6      0 +4.1053447e-01 1.25000000e+02 7.54677100e-03 1.12640300e-01
       21 -1    0    0  502  501 +0.0000000000e+00 +0.0000000000e+00 +9.5585602435e+00 9.5585602435e+00 0.0000000000e+00 0.0000e+00 -1.0000e+00
       21 -1    0    0  501  502 -0.0000000000e+00 -0.0000000000e+00 -4.0866510233e+02 4.0866510233e+02 0.0000000000e+00 0.0000e+00 -1.0000e+00
       25  2    1    2    0    0 +0.0000000000e+00 +0.0000000000e+00 -3.9910654208e+02 4.1822366257e+02 1.2500000000e+02 0.0000e+00 0.0000e+00
      -15  1    3    3    0    0 -1.2562474470e+01 +4.4289994288e+01 -5.8248897025e+01 7.4266487007e+01 1.7770000000e+00 0.0000e+00 1.0000e+00
       15  1    3    3    0    0 +1.2562618440e+01 -4.4289946596e+01 -3.4085736200e+02 3.4395685443e+02 1.7770000000e+00 0.0000e+00 1.0000e+00
       22  1    3    3    0    0 -1.4396971263e-04 -4.7691651915e-05 -2.8302514607e-04 3.2109968099e-04 0.0000000000e+00 0.0000e+00 1.0000e+00
<mgrwt>
<rscale>  2 0.12500000E+03</rscale>
<asrwt>0</asrwt>
<pdfrwt beam="1">  1       21 0.14056703E-02 0.12500000E+03</pdfrwt>
<pdfrwt beam="2">  1       21 0.60097824E-01 0.12500000E+03</pdfrwt>
<totfact> 0.52005404E+06</totfact>
</mgrwt>
</event>
<event>
 6      0 +4.1053447e-01 1.25000000e+02 7.54677100e-03 1.12640300e-01
       21 -1    0    0  502  501 +0.0000000000e+00 +0.0000000000e+00 +1.8439485260e+02 1.8439485260e+02 0.0000000000e+00 0.0000e+00 -1.0000e+00
       21 -1    0    0  501  502 -0.0000000000e+00 -0.0000000000e+00 -2.1184159671e+01 2.1184159671e+01 0.0000000000e+00 0.0000e+00 -1.0000e+00
       25  2    1    2    0    0 +0.0000000000e+00 +0.0000000000e+00 +1.6321069293e+02 2.0557901227e+02 1.2500000000e+02 0.0000e+00 0.0000e+00
      -15  1    3    3    0    0 +1.8226371981e+01 +5.0157319284e+01 +1.3502766927e+02 1.4520188191e+02 1.7770000000e+00 0.0000e+00 1.0000e+00
       15  1    3    3    0    0 -1.8226371965e+01 -5.0157319313e+01 +2.8183023662e+01 6.0377130334e+01 1.7770000000e+00 0.0000e+00 1.0000e+00
       22  1    3    3    0    0 -1.6078083489e-08 +2.8415004619e-08 +6.5619811453e-09 3.3301304070e-08 0.0000000000e+00 0.0000e+00 1.0000e+00
<mgrwt>
<rscale>  2 0.12500000E+03</rscale>
<asrwt>0</asrwt>
<pdfrwt beam="1">  1       21 0.27116889E-01 0.12500000E+03</pdfrwt>
<pdfrwt beam="2">  1       21 0.31153177E-02 0.12500000E+03</pdfrwt>
<totfact> 0.76012673E+06</totfact>
</mgrwt>
</event>
<event>
 6      0 +4.1053447e-01 1.25000000e+02 7.54677100e-03 1.12640300e-01
       21 -1    0    0  502  501 +0.0000000000e+00 +0.0000000000e+00 +1.2335322547e+02 1.2335322547e+02 0.0000000000e+00 0.0000e+00 1.0000e+00
       21 -1    0    0  501  502 -0.0000000000e+00 -0.0000000000e+00 -3.1667189771e+01 3.1667189771e+01 0.0000000000e+00 0.0000e+00 1.0000e+00
       25  2    1    2    0    0 +0.0000000000e+00 +0.0000000000e+00 +9.1686035703e+01 1.5502041525e+02 1.2500000000e+02 0.0000e+00 0.0000e+00
      -15  1    3    3    0    0 -1.7684864232e+01 -6.7316204495e+00 -9.8577381767e+00 2.1410321523e+01 1.7770000000e+00 0.0000e+00 -1.0000e+00
       15  1    3    3    0    0 +2.9750204030e+01 +1.4804950522e+01 +1.1126742691e+02 1.1613724303e+02 1.7770000000e+00 0.0000e+00 -1.0000e+00
       22  1    3    3    0    0 -1.2065339798e+01 -8.0733300723e+00 -9.7236530302e+00 1.7472850688e+01 0.0000000000e+00 0.0000e+00 -1.0000e+00
<mgrwt>
<rscale>  2 0.12500000E+03</rscale>
<asrwt>0</asrwt>
<pdfrwt beam="1">  1       21 0.18140180E-01 0.12500000E+03</pdfrwt>
<pdfrwt beam="2">  1       21 0.46569397E-02 0.12500000E+03</pdfrwt>
<totfact> 0.83792071E+06</totfact>
</mgrwt>
</event>
<event>
 6      0 +4.1053447e-01 1.25000000e+02 7.54677100e-03 1.12640300e-01
       21 -1    0    0  502  501 +0.0000000000e+00 +0.0000000000e+00 +5.1483538387e+01 5.1483538387e+01 0.0000000000e+00 0.0000e+00 1.0000e+00
       21 -1    0    0  501  502 -0.0000000000e+00 -0.0000000000e+00 -7.5873767079e+01 7.5873767079e+01 0.0000000000e+00 0.0000e+00 1.0000e+00
       25  2    1    2    0    0 +0.0000000000e+00 +0.0000000000e+00 -2.4390228691e+01 1.2735730547e+02 1.2500000000e+02 0.0000e+00 0.0000e+00
      -15  1    3    3    0    0 -3.4508654531e+01 -3.5364258215e+01 +2.6756928283e+01 5.6218937529e+01 1.7770000000e+00 0.0000e+00 1.0000e+00
       15  1    3    3    0    0 +3.4508654533e+01 +3.5364258218e+01 -5.1147156973e+01 7.1138367935e+01 1.7770000000e+00 0.0000e+00 1.0000e+00
       22  1    3    3    0    0 -1.2841671086e-09 -2.5402377835e-09 -5.5344532181e-10 2.8996887563e-09 0.0000000000e+00 0.0000e+00 -1.0000e+00
<mgrwt>
<rscale>  2 0.12500000E+03</rscale>
<asrwt>0</asrwt>
<pdfrwt beam="1">  1       21 0.75711087E-02 0.12500000E+03</pdfrwt>
<pdfrwt beam="2">  1       21 0.11157907E-01 0.12500000E+03</pdfrwt>
<totfact> 0.88570519E+06</totfact>
</mgrwt>
</event>
<event>
 6      0 +4.1053447e-01 1.25000000e+02 7.54677100e-03 1.12640300e-01
       21 -1    0    0  502  501 +0.0000000000e+00 +0.0000000000e+00 +1.3054531564e+01 1.3054531564e+01 0.0000000000e+00 0.0000e+00 1.0000e+00
       21 -1    0    0  501  502 -0.0000000000e+00 -0.0000000000e+00 -2.9922559694e+02 2.9922559694e+02 0.0000000000e+00 0.0000e+00 1.0000e+00
       25  2    1    2    0    0 +0.0000000000e+00 +0.0000000000e+00 -2.8617106538e+02 3.1228012851e+02 1.2500000000e+02 0.0000e+00 0.0000e+00
      -15  1    3    3    0    0 -8.3179520374e+00 -5.1296791800e+01 -5.6452293742e+01 7.6750038260e+01 1.7770000000e+00 0.0000e+00 -1.0000e+00
       15  1    3    3    0    0 +8.3178757972e+00 +5.1294278237e+01 -2.2970796116e+02 2.3551899114e+02 1.7770000000e+00 0.0000e+00 -1.0000e+00
       22  1    3    3    0    0 +7.6240147529e-05 +2.5135629120e-03 -1.0810465268e-02 1.1099097728e-02 0.0000000000e+00 0.0000e+00 -1.0000e+00
<mgrwt>
<rscale>  2 0.12500000E+03</rscale>
<asrwt>0</asrwt>
<pdfrwt beam="1">  1       21 0.19197838E-02 0.12500000E+03</pdfrwt>
<pdfrwt beam="2">  1       21 0.44003770E-01 0.12500000E+03</pdfrwt>
<totfact> 0.62559714E+06</totfact>
</mgrwt>
</event>
<event>
 6      0 +4.1053447e-01 1.25000000e+02 7.54677100e-03 1.12640300e-01
       21 -1    0    0  502  501 +0.0000000000e+00 +0.0000000000e+00 +1.4052625813e+01 1.4052625813e+01 0.0000000000e+00 0.0000e+00 1.0000e+00
       21 -1    0    0  501  502 -0.0000000000e+00 -0.0000000000e+00 -2.7797296049e+02 2.7797296049e+02 0.0000000000e+00 0.0000e+00 1.0000e+00
       25  2    1    2    0    0 +0.0000000000e+00 +0.0000000000e+00 -2.6392033468e+02 2.9202558631e+02 1.2500000000e+02 0.0000e+00 0.0000e+00
      -15  1    3    3    0    0 +3.4295105013e-01 -7.2031382095e-01 +1.3875695765e+01 1.4011749688e+01 1.7770000000e+00 0.0000e+00 1.0000e+00
       15  1    3    3    0    0 -9.4529475669e-01 +4.2577382817e-01 -2.7683152520e+02 2.7683916980e+02 1.7770000000e+00 0.0000e+00 1.0000e+00
       22  1    3    3    0    0 +6.0234370655e-01 +2.9453999278e-01 -9.6450523123e-01 1.1746667992e+00 0.0000000000e+00 0.0000e+00 -1.0000e+00
<mgrwt>
<rscale>  2 0.12500000E+03</rscale>
<asrwt>0</asrwt>
<pdfrwt beam="1">  1       21 0.20665628E-02 0.12500000E+03</pdfrwt>
<pdfrwt beam="2">  1       21 0.40878372E-01 0.12500000E+03</pdfrwt>
<totfact> 0.64873187E+06</totfact>
</mgrwt>
</event>
<event>
 6      0 +4.1053447e-01 1.25000000e+02 7.54677100e-03 1.12640300e-01
       21 -1    0    0  502  501 +0.0000000000e+00 +0.0000000000e+00 +1.6481785204e+01 1.6481785204e+01 0.0000000000e+00 0.0000e+00 -1.0000e+00
       21 -1    0    0  501  502 -0.0000000000e+00 -0.0000000000e+00 -2.3700405944e+02 2.3700405944e+02 0.0000000000e+00 0.0000e+00 -1.0000e+00
       25  2    1    2    0    0 +0.0000000000e+00 +0.0000000000e+00 -2.2052227423e+02 2.5348584464e+02 1.2500000000e+02 0.0000e+00 0.0000e+00
      -15  1    3    3    0    0 +1.2173196977e+01 +1.8240739862e+01 -1.7791999575e+02 1.7927519051e+02 1.7770000000e+00 0.0000e+00 -1.0000e+00
       15  1    3    3    0    0 -1.8555270176e+00 +6.1259610383e+00 +1.1897668955e+01 1.3626541554e+01 1.7770000000e+00 0.0000e+00 -1.0000e+00
       22  1    3    3    0    0 -1.0317669960e+01 -2.4366700900e+01 -5.4499947430e+01 6.0584112571e+01 0.0000000000e+00 0.0000e+00 -1.0000e+00
<mgrwt>
<rscale>  2 0.12500000E+03</rscale>
<asrwt>0</asrwt>
<pdfrwt beam="1">  1       21 0.24237922E-02 0.12500000E+03</pdfrwt>
<pdfrwt beam="2">  1       21 0.34853534E-01 0.12500000E+03</pdfrwt>
<totfact> 0.69557152E+06</totfact>
</mgrwt>
</event>
<event>
 6      0 +4.1053447e-01 1.25000000e+02 7.54677100e-03 1.12640300e-01
       21 -1    0    0  502  501 +0.0000000000e+00 +0.0000000000e+00 +1.5794673683e+02 1.5794673683e+02 0.0000000000e+00 0.0000e+00 -1.0000e+00
       21 -1    0    0  501  502 -0.0000000000e+00 -0.0000000000e+00 -2.4731438448e+01 2.4731438448e+01 0.0000000000e+00 0.0000e+00 -1.0000e+00
       25  2    1    2    0    0 +0.0000000000e+00 +0.0000000000e+00 +1.3321529838e+02 1.8267817528e+02 1.2500000000e+02 0.0000e+00 0.0000e+00
      -15  1    3    3    0    0 -5.3584351849e+01 -3.0988645308e+01 +7.8966273494e+01 1.0035142739e+02 1.7770000000e+00 0.0000e+00 -1.0000e+00
       15  1    3    3    0    0 +5.3584280373e+01 +3.0988595249e+01 +5.4248958278e+01 8.2326638107e+01 1.7770000000e+00 0.0000e+00 -1.0000e+00
       22  1    3    3    0    0 +7.1475378076e-05 +5.0058521245e-05 +6.6602372823e-05 1.0977459308e-04 0.0000000000e+00 0.0000e+00 1.0000e+00
<mgrwt>
<rscale>  2 0.12500000E+03</rscale>
<asrwt>0</asrwt>
<pdfrwt beam="1">  1       21 0.23227461E-01 0.12500000E+03</pdfrwt>
<pdfrwt beam="2">  1       21 0.36369763E-02 0.12500000E+03</pdfrwt>
<totfact> 0.79398226E+06</totfact>
</mgrwt>
</event>
<event>
 6      0 +4.1053447e-01 1.25000000e+02 7.54677100e-03 1.12640300e-01
       21 -1    0    0  502  501 +0.0000000000e+00 +0.0000000000e+00 +5.0599193161e+01 5.0599193161e+01 0.0000000000e+00 0.0000e+00 -1.0000e+00
       21 -1    0    0  501  502 -0.0000000000e+00 -0.0000000000e+00 -7.7199847585e+01 7.7199847585e+01 0.0000000000e+00 0.0000e+00 -1.0000e+00
       25  2    1    2    0    0 +0.0000000000e+00 +0.0000000000e+00 -2.6600654424e+01 1.2779904075e+02 1.2500000000e+02 0.0000e+00 0.0000e+00
      -15  1    3    3    0    0 +4.6957019269e+01 +3.4074893239e+01 -3.6993202569e+01 6.8831059655e+01 1.7770000000e+00 0.0000e+00 -1.0000e+00
       15  1    3    3    0    0 -4.6957019264e+01 -3.4074893239e+01 +1.0392548145e+01 5.8967981086e+01 1.7770000000e+00 0.0000e+00 -1.0000e+00
       22  1    3    3    0    0 -4.9717437436e-09 +3.3571161237e-10 +9.5755763431e-10 5.0742344015e-09 0.0000000000e+00 0.0000e+00 -1.0000e+00
<mgrwt>
<rscale>  2 0.12500000E+03</rscale>
<asrwt>0</asrwt>
<pdfrwt beam="1">  1       21 0.74410580E-02 0.12500000E+03</pdfrwt>
<pdfrwt beam="2">  1       21 0.11352919E-01 0.12500000E+03</pdfrwt>
<totfact> 0.88493032E+06</totfact>
</mgrwt>
</event>
<event>
 6      0 +4.1053447e-01 1.25000000e+02 7.54677100e-03 1.12640300e-01
       21 -1    0    0  502  501 +0.0000000000e+00 +0.0000000000e+00 +9.4242088775e+01 9.4242088775e+01 0.0000000000e+00 0.0000e+00 1.0000e+00
       21 -1    0    0  501  502 -0.0000000000e+00 -0.0000000000e+00 -4.1449102527e+01 4.1449102527e+01 0.0000000000e+00 0.0000e+00 1.0000e+00
       25  2    1    2    0    0 +0.0000000000e+00 +0.0000000000e+00 +5.2792986247e+01 1.3569119130e+02 1.2500000000e+02 0.0000e+00 0.0000e+00
      -15  1    3    3    0    0 -2.5976147399e+01 -5.6022490875e+01 +3.6683628646e+01 7.1847937042e+01 1.7770000000e+00 0.0000e+00 1.0000e+00
       15  1    3    3    0    0 +2.5976147380e+01 +5.6022483372e+01 +1.6109439297e+01 6.3843172222e+01 1.7770000000e+00 0.0000e+00 1.0000e+00
       22  1    3    3    0    0 +1.8907186992e-08 +7.5037152237e-06 -8.1694697983e-05 8.2038587139e-05 0.0000000000e+00 0.0000e+00 -1.0000e+00
<mgrwt>
<rscale>  2 0.12500000E+03</rscale>
<asrwt>0</asrwt>
<pdfrwt beam="1">  1       21 0.13859131E-01 0.12500000E+03</pdfrwt>
<pdfrwt beam="2">  1       21 0.60954563E-02 0.12500000E+03</pdfrwt>
<totfact> 0.87085244E+06</totfact>
</mgrwt>
</event>
<event>
 6      0 +4.1053447e-01 1.25000000e+02 7.54677100e-03 1.12640300e-01
       21 -1    0    0  502  501 +0.0000000000e+00 +0.0000000000e+00 +3.4259951872e+02 3.4259951872e+02 0.0000000000e+00 0.0000e+00 -1.0000e+00
       21 -1    0    0  501  502 -0.0000000000e+00 -0.0000000000e+00 -1.1401796519e+01 1.1401796519e+01 0.0000000000e+00 0.0000e+00 -1.0000e+00
       25  2    1    2    0    0 +0.0000000000e+00 +0.0000000000e+00 +3.3119772220e+02 3.5400131524e+02 1.2500000000e+02 0.0000e+00 0.0000e+00
      -15  1    3    3    0    0 -3.0343971380e+01 -5.4555635801e+01 +1.6037954022e+02 1.7210993186e+02 1.7770000000e+00 0.0000e+00 -1.0000e+00
       15  1    3    3    0    0 +3.0351573638e+01 +5.4574899659e+01 +1.7072973284e+02 1.8180054208e+02 1.7770000000e+00 0.0000e+00 -1.0000e+00
       22  1    3    3    0    0 -7.6022578300e-03 -1.9263858114e-02 +8.8449131009e-02 9.0841286483e-02 0.0000000000e+00 0.0000e+00 -1.0000e+00
<mgrwt>
<rscale>  2 0.12500000E+03</rscale>
<asrwt>0</asrwt>
<pdfrwt beam="1">  1       21 0.50382276E-01 0.12500000E+03</pdfrwt>
<pdfrwt beam="2">  1       21 0.16767350E-02 0.12500000E+03</pdfrwt>
<totfact> 0.58120713E+06</totfact>
</mgrwt>
</event>
<event>
 6      0 +4.1053447e-01 1.25000000e+02 7.54677100e-03 1.12640300e-01
       21 -1    0    0  502  501 +0.0000000000e+00 +0.0000000000e+00 +2.3025280955e+01 2.3025280955e+01 0.0000000000e+00 0.0000e+00 -1.0000e+00
       21 -1    0    0  501  502 -0.0000000000e+00 -0.0000000000e+00 -1.6965048147e+02 1.6965048147e+02 0.0000000000e+00 0.0000e+00 -1.0000e+00
       25  2    1    2    0    0 +0.0000000000e+00 +0.0000000000e+00 -1.4662520052e+02 1.9267576243e+02 1.2500000000e+02 0.0000e+00 0.0000e+00
      -15  1    3    3    0    0 +2.2045407132e+01 +2.8556151747e+01 -1.5184354297e+02 1.5608034165e+02 1.7770000000e+00 0.0000e+00 1.0000e+00
       15  1    3    3    0    0 -2.0878495439e+01 -2.7502064404e+01 +5.4631085448e+00 3.5003976951e+01 1.7770000000e+00 0.0000e+00 1.0000e+00
       22  1    3    3    0    0 -1.1669116928e+00 -1.0540873424e+00 -2.4476609400e-01 1.5914438304e+00 0.0000000000e+00 0.0000e+00 -1.0000e+00
<mgrwt>
<rscale>  2 0.12500000E+03</rscale>
<asrwt>0</asrwt>
<pdfrwt beam="1">  1       21 0.33860707E-02 0.12500000E+03</pdfrwt>
<pdfrwt beam="2">  1       21 0.24948601E-01 0.12500000E+03</pdfrwt>
<totfact> 0.77899223E+06</totfact>
</mgrwt>
</event>
<event>
 6      0 +4.1053447e-01 1.25000000e+02 7.54677100e-03 1.12640300e-01
       21 -1    0    0  502  501 +0.0000000000e+00 +0.0000000000e+00 +7.7024893043e+01 7.7024893043e+01 0.0000000000e+00 0.0000e+00 -1.0000e+00
       21 -1    0    0  501  502 -0.0000000000e+00 -0.0000000000e+00 -5.0714124301e+01 5.0714124301e+01 0.0000000000e+00 0.0000e+00 -1.0000e+00
       25  2    1    2    0    0 +0.0000000000e+00 +0.0000000000e+00 +2.6310768742e+01 1.2773901734e+02 1.2500000000e+02 0.0000e+00 0.0000e+00
      -15  1    3    3    0    0 -9.0425297775e+00 +5.8986376340e+01 +3.2051757784e+01 6.7761588267e+01 1.7770000000e+00 0.0000e+00 1.0000e+00
       15  1    3    3    0    0 +9.0425393726e+00 -5.8986436067e+01 -5.7410143455e+00 5.9977363504e+01 1.7770000000e+00 0.0000e+00 1.0000e+00
       22  1    3    3    0    0 -9.5951059631e-06 +5.9727352414e-05 +2.5304908288e-05 6.5572563380e-05 0.0000000000e+00 0.0000e+00 -1.0000e+00
<mgrwt>
<rscale>  2 0.12500000E+03</rscale>
<asrwt>0</asrwt>
<pdfrwt beam="1">  1       21 0.11327190E-01 0.12500000E+03</pdfrwt>
<pdfrwt beam="2">  1       21 0.74579594E-02 0.12500000E+03</pdfrwt>
<totfact> 0.88503551E+06</totfact>
</mgrwt>
</event>
<event>
 6      0 +4.1053447e-01 1.25000000e+02 7.54677100e-03 1.12640300e-01
       21 -1    0    0  502  501 +0.0000000000e+00 +0.0000000000e+00 +2.8117198771e+02 2.8117198771e+02 0.0000000000e+00 0.0000e+00 -1.0000e+00
       21 -1    0    0  501  502 -0.0000000000e+00 -0.0000000000e+00 -1.3892742416e+01 1.3892742416e+01 0.0000000000e+00 0.0000e+00 -1.0000e+00
       25  2    1    2    0    0 +0.0000000000e+00 +0.0000000000e+00 +2.6727924530e+02 2.9506473013e+02 1.2500000000e+02 0.0000e+00 0.0000e+00
      -15  1    3    3    0    0 +3.8928279393e+01 -2.2538541709e+01 +3.1298490938e+01 5.4828369144e+01 1.7770000000e+00 0.0000e+00 1.0000e+00
       15  1    3    3    0    0 -3.8928397289e+01 +2.2538585167e+01 +2.3598063579e+02 2.4023618823e+02 1.7770000000e+00 0.0000e+00 1.0000e+00
       22  1    3    3    0    0 +1.1789665916e-04 -4.3457773651e-05 +1.1858085654e-04 1.7277042533e-04 0.0000000000e+00 0.0000e+00 1.0000e+00
<mgrwt>
<rscale>  2 0.12500000E+03</rscale>
<asrwt>0</asrwt>
<pdfrwt beam="1">  1       21 0.41348818E-01 0.12500000E+03</pdfrwt>
<pdfrwt beam="2">  1       21 0.20430505E-02 0.12500000E+03</pdfrwt>
<totfact> 0.64519824E+06</totfact>
</mgrwt>
</event>
<event>
 6      0 +4.1053447e-01 1.25000000e+02 7.54677100e-03 1.12640300e-01
       21 -1    0    0  502  501 +0.0000000000e+00 +0.0000000000e+00 +7.0444428738e+01 7.0444428738e+01 0.0000000000e+00 0.0000e+00 -1.0000e+00
       21 -1    0    0  501  502 -0.0000000000e+00 -0.0000000000e+00 -5.5451510787e+01 5.5451510787e+01 0.0000000000e+00 0.0000e+00 -1.0000e+00
       25  2    1    2    0    0 +0.0000000000e+00 +0.0000000000e+00 +1.4992917951e+01 1.2589593952e+02 1.2500000000e+02 0.0000e+00 0.0000e+00
      -15  1    3    3    0    0 +4.0329309533e+01 +4.2813473139e+01 +2.7658113068e+01 6.5019809575e+01 1.7770000000e+00 0.0000e+00 -1.0000e+00
       15  1    3    3    0    0 -4.0625508806e+01 -4.2820075226e+01 -1.2160923609e+01 6.0291264709e+01 1.7770000000e+00 0.0000e+00 -1.0000e+00
       22  1    3    3    0    0 +2.9619927220e-01 +6.6020868146e-03 -5.0427150770e-01 5.8486524078e-01 0.0000000000e+00 0.0000e+00 -1.0000e+00
<mgrwt>
<rscale>  2 0.12500000E+03</rscale>
<asrwt>0</asrwt>
<pdfrwt beam="1">  1       21 0.10359475E-01 0.12500000E+03</pdfrwt>
<pdfrwt beam="2">  1       21 0.81546339E-02 0.12500000E+03</pdfrwt>
<totfact> 0.88830626E+06</totfact>
</mgrwt>
</event>
<event>
 6      0 +4.1053447e-01 1.25000000e+02 7.54677100e-03 1.12640300e-01
       21 -1    0    0  502  501 +0.0000000000e+00 +0.0000000000e+00 +1.3562935707e+03 1.3562935707e+03 0.0000000000e+00 0.0000e+00 -1.0000e+00
       21 -1    0    0  501  502 -0.0000000000e+00 -0.0000000000e+00 -2.8800918064e+00 2.8800918064e+00 0.0000000000e+00 0.0000e+00 -1.0000e+00
       25  2    1    2    0    0 +0.0000000000e+00 +0.0000000000e+00 +1.3534134789e+03 1.3591736625e+03 1.2500000000e+02 0.0000e+00 0.0000e+00
      -15  1    3    3    0    0 -5.3803697041e+00 +6.6938731450e+00 +5.8272603071e+00 1.0529530260e+01 1.7770000000e+00 0.0000e+00 -1.0000e+00
       15  1    3    3    0    0 +6.5264104755e+00 -2.9499821626e+01 +6.9543348714e+02 6.9609175133e+02 1.7770000000e+00 0.0000e+00 -1.0000e+00
       22  1    3    3    0    0 -1.1460407713e+00 +2.2805948481e+01 +6.5215273294e+02 6.5255238240e+02 0.0000000000e+00 0.0000e+00 -1.0000e+00
<mgrwt>
<rscale>  2 0.12500000E+03</rscale>
<asrwt>0</asrwt>
<pdfrwt beam="1">  1       21 0.19945449E+00 0.12500000E+03</pdfrwt>
<pdfrwt beam="2">  1       21 0.42354386E-03 0.12500000E+03</pdfrwt>
<totfact> 0.12872945E+06</totfact>
</mgrwt>
</event>
<event>
 6      0 +4.1053447e-01 1.25000000e+02 7.54677100e-03 1.12640300e-01
       21 -1    0    0  502  501 +0.0000000000e+00 +0.0000000000e+00 +7.4683121952e+00 7.4683121952e+00 0.0000000000e+00 0.0000e+00 -1.0000e+00
       21 -1    0    0  501  502 -0.0000000000e+00 -0.0000000000e+00 -5.2304321216e+02 5.2304321216e+02 0.0000000000e+00 0.0000e+00 -1.0000e+00
       25  2    1    2    0    0 +0.0000000000e+00 +0.0000000000e+00 -5.1557489996e+02 5.3051152435e+02 1.2500000000e+02 0.0000e+00 0.0000e+00
      -15  1    3    3    0    0 -4.4305655245e+01 +2.9671353815e+01 -1.1962859514e+02 1.3098678876e+02 1.7770000000e+00 0.0000e+00 -1.0000e+00
       15  1    3    3    0    0 +4.4305655245e+01 -2.9671353814e+01 -3.9594630483e+02 3.9952473560e+02 1.7770000000e+00 0.0000e+00 -1.0000e+00
       22  1    3    3    0    0 -1.4564666573e-10 -5.5847649264e-10 -3.0714775349e-09 3.1252333019e-09 0.0000000000e+00 0.0000e+00 -1.0000e+00
<mgrwt>
<rscale>  2 0.12500000E+03</rscale>
<asrwt>0</asrwt>
<pdfrwt beam="1">  1       21 0.10982811E-02 0.12500000E+03</pdfrwt>
<pdfrwt beam="2">  1       21 0.76918124E-01 0.12500000E+03</pdfrwt>
<totfact> 0.43130789E+06</totfact>
</mgrwt>
</event>
<event>
 6      0 +4.1053447e-01 1.25000000e+02 7.54677100e-03 1.12640300e-01
       21 -1    0    0  502  501 +0.0000000000e+00 +0.0000000000e+00 +1.2116868009e+02 1.2116868009e+02 0.0000000000e+00 0.0000e+00 -1.0000e+00
       21 -1    0    0  501  502 -0.0000000000e+00 -0.0000000000e+00 -3.2238116296e+01 3.2238116296e+01 0.0000000000e+00 0.0000e+00 -1.0000e+00
       25  2    1    2    0    0 +0.0000000000e+00 +0.0000000000e+00 +8.8930563790e+01 1.5340679638e+02 1.2500000000e+02 0.0000e+00 0.0000e+00
      -15  1    3    3    0    0 +5.6381998140e+01 +2.5445636194e+00 +7.7342862681e+01 9.5762626609e+01 1.7770000000e+00 0.0000e+00 1.0000e+00
       15  1    3    3    0    0 -5.6381460781e+01 -2.5442235868e+00 +1.1587351182e+01 5.7643443944e+01 1.7770000000e+00 0.0000e+00 1.0000e+00
       22  1    3    3    0    0 -5.3735918052e-04 -3.4003258211e-04 +3.4992695035e-04 7.2582774566e-04 0.0000000000e+00 0.0000e+00 -1.0000e+00
<mgrwt>
<rscale>  2 0.12500000E+03</rscale>
<asrwt>0</asrwt>
<pdfrwt beam="1">  1       21 0.17818923E-01 0.12500000E+03</pdfrwt>
<pdfrwt beam="2">  1       21 0.47408995E-02 0.12500000E+03</pdfrwt>
<totfact> 0.84058133E+06</totfact>
</mgrwt>
</event>
<event>
 6      0 +4.1053447e-01 1.25000000e+02 7.54677100e-03 1.12640300e-01
       21 -1    0    0  502  501 +0.0000000000e+00 +0.0000000000e+00 +7.7161382495e+01 7.7161382495e+01 0.0000000000e+00 0.0000e+00 1.0000e+00
       21 -1    0    0  501  502 -0.0000000000e+00 -0.0000000000e+00 -5.0624416952e+01 5.0624416952e+01 0.0000000000e+00 0.0000e+00 1.0000e+00
       25  2    1    2    0    0 +0.0000000000e+00 +0.0000000000e+00 +2.6536965543e+01 1.2778579945e+02 1.2500000000e+02 0.0000e+00 0.0000e+00
      -15  1    3    3    0    0 -4.7542107995e+01 +7.4542208433e-01 +5.4696656652e+01 7.2496135514e+01 1.7770000000e+00 0.0000e+00 -1.0000e+00
       15  1    3    3    0    0 +4.7542124666e+01 -7.4545274711e-01 -2.8159755255e+01 5.5289590906e+01 1.7770000000e+00 0.0000e+00 -1.0000e+00
       22  1    3    3    0    0 -1.6671344995e-05 +3.0662784420e-05 +6.4145342750e-05 7.3025783726e-05 0.0000000000e+00 0.0000e+00 -1.0000e+00
<mgrwt>
<rscale>  2 0.12500000E+03</rscale>
<asrwt>0</asrwt>
<pdfrwt beam="1">  1       21 0.11347262E-01 0.12500000E+03</pdfrwt>
<pdfrwt beam="2">  1       21 0.74447672E-02 0.12500000E+03</pdfrwt>
<totfact> 0.88495354E+06</totfact>
</mgrwt>
</event>
<event>
 6      0 +4.1053447e-01 1.25000000e+02 7.54677100e-03 1.12640300e-01
       21 -1    0    0  502  501 +0.0000000000e+00 +0.0000000000e+00 +4.4267197572e+02 4.4267197572e+02 0.0000000000e+00 0.0000e+00 -1.0000e+00
       21 -1    0    0  501  502 -0.0000000000e+00 -0.0000000000e+00 -8.8242541074e+00 8.8242541074e+00 0.0000000000e+00 0.0000e+00 -1.0000e+00
       25  2    1    2    0    0 +0.0000000000e+00 +0.0000000000e+00 +4.3384772162e+02 4.5149622983e+02 1.2500000000e+02 0.0000e+00 0.0000e+00
      -15  1    3    3    0    0 -6.0081978067e+01 -1.5608984053e+01 +2.4235579667e+02 2.5018587966e+02 1.7770000000e+00 0.0000e+00 -1.0000e+00
       15  1    3    3    0    0 +6.0082203682e+01 +1.5609012125e+01 +1.9149142049e+02 2.0130979685e+02 1.7770000000e+00 0.0000e+00 -1.0000e+00
       22  1    3    3    0    0 -2.2561541309e-04 -2.8071914053e-05 +5.0452248060e-04 5.5338348405e-04 0.0000000000e+00 0.0000e+00 -1.0000e+00
<mgrwt>
<rscale>  2 0.12500000E+03</rscale>
<asrwt>0</asrwt>
<pdfrwt beam="1">  1       21 0.65098805E-01 0.12500000E+03</pdfrwt>
<pdfrwt beam="2">  1       21 0.12976847E-02 0.12500000E+03</pdfrwt>
<totfact> 0.49151294E+06</totfact>
</mgrwt>
</event>
<event>
 6      0 +4.1053447e-01 1.25000000e+02 7.54677100e-03 1.12640300e-01
       21 -1    0    0  502  501 +0.0000000000e+00 +0.0000000000e+00 +8.3837314792e+02 8.3837314792e+02 0.0000000000e+00 0.0000e+00 1.0000e+00
       21 -1    0    0  501  502 -0.0000000000e+00 -0.0000000000e+00 -4.6593214605e+00 4.6593214605e+00 0.0000000000e+00 0.0000e+00 1.0000e+00
       25  2    1    2    0    0 +0.0000000000e+00 +0.0000000000e+00 +8.3371382646e+02 8.4303246938e+02 1.2500000000e+02 0.0000e+00 0.0000e+00
      -15  1    3    3    0    0 +4.9060838372e+01 +1.3538334920e+01 +2.4880897977e+02 2.5396716031e+02 1.7770000000e+00 0.0000e+00 -1.0000e+00
       15  1    3    3    0    0 -5.6065777123e+01 -1.9052874119e+01 +5.4303522873e+02 5.4625708302e+02 1.7770000000e+00 0.0000e+00 -1.0000e+00
       22  1    3    3    0    0 +7.0049387510e+00 +5.5145391984e+00 +4.1869618004e+01 4.2808226094e+01 0.0000000000e+00 0.0000e+00 1.0000e+00
<mgrwt>
<rscale>  2 0.12500000E+03</rscale>
<asrwt>0</asrwt>
<pdfrwt beam="1">  1       21 0.12329006E+00 0.12500000E+03</pdfrwt>
<pdfrwt beam="2">  1       21 0.68519492E-03 0.12500000E+03</pdfrwt>
<totfact> 0.26544093E+06</totfact>
</mgrwt>
</event>
<event>
 6      0 +4.1053447e-01 1.25000000e+02 7.54677100e-03 1.12640300e-01
       21 -1    0    0  502  501 +0.0000000000e+00 +0.0000000000e+00 +2.6036244744e+02 2.6036244744e+02 0.0000000000e+00 0.0000e+00 -1.0000e+00
       21 -1    0    0  501  502 -0.0000000000e+00 -0.0000000000e+00 -1.5003123678e+01 1.5003123678e+01 0.0000000000e+00 0.0000e+00 -1.0000e+00
       25  2    1    2    0    0 +0.0000000000e+00 +0.0000000000e+00 +2.4535932376e+02 2.7536557111e+02 1.2500000000e+02 0.0000e+00 0.0000e+00
      -15  1    3    3    0    0 +6.0665721342e+01 +1.4272568985e+01 +1.3208176142e+02 1.4605747293e+02 1.7770000000e+00 0.0000e+00 1.0000e+00
       15  1    3    3    0    0 -6.0671829981e+01 -1.4274228330e+01 +1.1326429443e+02 1.2929339762e+02 1.7770000000e+00 0.0000e+00 1.0000e+00
       22  1    3    3    0    0 +6.1086392353e-03 +1.6593458008e-03 +1.3267936648e-02 1.4700579740e-02 0.0000000000e+00 0.0000e+00 1.0000e+00
<mgrwt>
<rscale>  2 0.12500000E+03</rscale>
<asrwt>0</asrwt>
<pdfrwt beam="1">  1       21 0.38288592E-01 0.12500000E+03</pdfrwt>
<pdfrwt beam="2">  1       21 0.22063419E-02 0.12500000E+03</pdfrwt>
<totfact> 0.66847248E+06</totfact>
</mgrwt>
</event>
<event>
 6      0 +4.1053447e-01 1.25000000e+02 7.54677100e-03 1.12640300e-01
       21 -1    0    0  502  501 +0.0000000000e+00 +0.0000000000e+00 +3.4968788359e+01 3.4968788359e+01 0.0000000000e+00 0.0000e+00 1.0000e+00
       21 -1    0    0  501  502 -0.0000000000e+00 -0.0000000000e+00 -1.1170675861e+02 1.1170675861e+02 0.0000000000e+00 0.0000e+00 1.0000e+00
       25  2    1    2    0    0 +0.0000000000e+00 +0.0000000000e+00 -7.6737970249e+01 1.4667554697e+02 1.2500000000e+02 0.0000e+00 0.0000e+00
      -15  1    3    3    0    0 -2.3419098800e+00 -2.1302411989e+00 -6.0894178648e+00 7.0895139737e+00 1.7770000000e+00 0.0000e+00 -1.0000e+00
       15  1    3    3    0    0 -2.0140172549e+01 -5.4049049065e+01 -4.7702617457e+01 7.4870713209e+01 1.7770000000e+00 0.0000e+00 -1.0000e+00
       22  1    3    3    0    0 +2.2482082429e+01 +5.6179290264e+01 -2.2945934925e+01 6.4715319783e+01 0.0000000000e+00 0.0000e+00 -1.0000e+00
<mgrwt>
<rscale>  2 0.12500000E+03</rscale>
<asrwt>0</asrwt>
<pdfrwt beam="1">  1       21 0.51424688E-02 0.12500000E+03</pdfrwt>
<pdfrwt beam="2">  1       21 0.16427465E-01 0.12500000E+03</pdfrwt>
<totfact> 0.85187410E+06</totfact>
</mgrwt>
</event>
<event>
 6      0 +4.1053447e-01 1.25000000e+02 7.54677100e-03 1.12640300e-01
       21 -1    0    0  502  501 +0.0000000000e+00 +0.0000000000e+00 +9.8574173198e+00 9.8574173198e+00 0.0000000000e+00 0.0000e+00 1.0000e+00
       21 -1    0    0  501  502 -0.0000000000e+00 -0.0000000000e+00 -3.9627519798e+02 3.9627519798e+02 0.0000000000e+00 0.0000e+00 1.0000e+00
       25  2    1    2    0    0 +0.0000000000e+00 +0.0000000000e+00 -3.8641778066e+02 4.0613261530e+02 1.2500000000e+02 0.0000e+00 0.0000e+00
      -15  1    3    3    0    0 +1.5713738948e+01 -4.9243171794e+01 -8.4033462410e+01 9.8674171361e+01 1.7770000000e+00 0.0000e+00 1.0000e+00
       15  1    3    3    0    0 -1.6200860987e+01 +5.0588391083e+01 -3.0004767920e+02 3.0471859269e+02 1.7770000000e+00 0.0000e+00 1.0000e+00
       22  1    3    3    0    0 +4.8712203969e-01 -1.3452192885e+00 -2.3366390526e+00 2.7398512510e+00 0.0000000000e+00 0.0000e+00 1.0000e+00
<mgrwt>
<rscale>  2 0.12500000E+03</rscale>
<asrwt>0</asrwt>
<pdfrwt beam="1">  1       21 0.14496202E-02 0.12500000E+03</pdfrwt>
<pdfrwt beam="2">  1       21 0.58275766E-01 0.12500000E+03</pdfrwt>
<totfact> 0.53093210E+06</totfact>
</mgrwt>
</event>
<event>
 6      0 +4.1053447e-01 1.25000000e+02 7.54677100e-03 1.12640300e-01
       21 -1    0    0  502  501 +0.0000000000e+00 +0.0000000000e+00 +1.4652526415e+02 1.4652526415e+02 0.0000000000e+00 0.0000e+00 1.0000e+00
       21 -1    0    0  501  502 -0.0000000000e+00 -0.0000000000e+00 -2.6659225102e+01 2.6659225102e+01 0.0000000000e+00 0.0000e+00 1.0000e+00
       25  2    1    2    0    0 +0.0000000000e+00 +0.0000000000e+00 +1.1986603904e+02 1.7318448925e+02 1.2500000000e+02 0.0000e+00 0.0000e+00
      -15  1    3    3    0    0 -3.3787001569e+01 +4.4065007595e+01 +2.1561672747e+01 5.9593202884e+01 1.7770000000e+00 0.0000e+00 -1.0000e+00
       15  1    3    3    0    0 +3.4042416167e+01 -4.4420491984e+01 +9.8327827484e+01 1.1315293011e+02 1.7770000000e+00 0.0000e+00 -1.0000e+00
       22  1    3    3    0    0 -2.5541459798e-01 +3.5548438897e-01 -2.3461197730e-02 4.3835624263e-01 0.0000000000e+00 0.0000e+00 -1.0000e+00
<mgrwt>
<rscale>  2 0.12500000E+03</rscale>
<asrwt>0</asrwt>
<pdfrwt beam="1">  1       21 0.21547833E-01 0.12500000E+03</pdfrwt>
<pdfrwt beam="2">  1       21 0.39204744E-02 0.12500000E+03</pdfrwt>
<totfact> 0.80861864E+06</totfact>
</mgrwt>
</event>
<event>
 6      0 +4.1053447e-01 1.25000000e+02 7.54677100e-03 1.12640300e-01
       21 -1    0    0  502  501 +0.0000000000e+00 +0.0000000000e+00 +8.7254632556e+01 8.7254632556e+01 0.0000000000e+00 0.0000e+00 1.0000e+00
       21 -1    0    0  501  502 -0.0000000000e+00 -0.0000000000e+00 -4.4768396652e+01 4.4768396652e+01 0.0000000000e+00 0.0000e+00 1.0000e+00
       25  2    1    2    0    0 +0.0000000000e+00 +0.0000000000e+00 +4.2486235904e+01 1.3202302921e+02 1.2500000000e+02 0.0000e+00 0.0000e+00
      -15  1    3    3    0    0 -5.7978400446e+01 -2.2872084485e+01 +1.6704722645e+01 6.4551008161e+01 1.7770000000e+00 0.0000e+00 1.0000e+00
       15  1    3    3    0    0 +5.7978408942e+01 +2.2872087853e+01 +2.5781511418e+01 6.7472011725e+01 1.7770000000e+00 0.0000e+00 1.0000e+00
       22  1    3    3    0    0 -8.4958576225e-06 -3.3681721857e-06 +1.8412421095e-06 9.3227867679e-06 0.0000000000e+00 0.0000e+00 -1.0000e+00
<mgrwt>
<rscale>  2 0.12500000E+03</rscale>
<asrwt>0</asrwt>
<pdfrwt beam="1">  1       21 0.12831564E-01 0.12500000E+03</pdfrwt>
<pdfrwt beam="2">  1       21 0.65835877E-02 0.12500000E+03</pdfrwt>
<totfact> 0.87732096E+06</totfact>
</mgrwt>
</event>
<event>
 6      0 +4.1053447e-01 1.25000000e+02 7.54677100e-03 1.12640300e-01
       21 -1    0    0  502  501 +0.0000000000e+00 +0.0000000000e+00 +2.2148624403e+01 2.2148624403e+01 0.0000000000e+00 0.0000e+00 1.0000e+00
       21 -1    0    0  501  502 -0.0000000000e+00 -0.0000000000e+00 -1.7636535475e+02 1.7636535475e+02 0.0000000000e+00 0.0000e+00 1.0000e+00
       25  2    1    2    0    0 +0.0000000000e+00 +0.0000000000e+00 -1.5421673035e+02 1.9851397915e+02 1.2500000000e+02 0.0000e+00 0.0000e+00
      -15  1    3    3    0    0 -2.3037042411e+01 +4.5687828825e+01 -2.0181241629e+01 5.5032020392e+01 1.7770000000e+00 0.0000e+00 1.0000e+00
       15  1    3    3    0    0 +2.2385345287e+01 -4.4412656295e+01 -1.3006108197e+02 1.3925742528e+02 1.7770000000e+00 0.0000e+00 1.0000e+00
       22  1    3    3    0    0 +6.5169712402e-01 -1.2751725301e+00 -3.9744067607e+00 4.2245334917e+00 0.0000000000e+00 0.0000e+00 -1.0000e+00
<mgrwt>
<rscale>  2 0.12500000E+03</rscale>
<asrwt>0</asrwt>
<pdfrwt beam="1">  1       21 0.32571507E-02 0.12500000E+03</pdfrwt>
<pdfrwt beam="2">  1       21 0.25936081E-01 0.12500000E+03</pdfrwt>
<totfact> 0.77036294E+06</totfact>
</mgrwt>
</event>
<event>
 6      0 +4.1053447e-01 1.25000000e+02 7.54677100e-03 1.12640300e-01
       21 -1    0    0  502  501 +0.0000000000e+00 +0.0000000000e+00 +1.1203631674e+02 1.1203631674e+02 0.0000000000e+00 0.0000e+00 1.0000e+00
       21 -1    0    0  501  502 -0.0000000000e+00 -0.0000000000e+00 -3.4865926635e+01 3.4865926635e+01 0.0000000000e+00 0.0000e+00 1.0000e+00
       25  2    1    2    0    0 +0.0000000000e+00 +0.0000000000e+00 +7.7170390108e+01 1.4690224338e+02 1.2500000000e+02 0.0000e+00 0.0000e+00
      -15  1    3    3    0    0 -2.9145646306e+01 -1.6753103478e+01 +4.7714390209e+01 5.8394827996e+01 1.7770000000e+00 0.0000e+00 -1.0000e+00
       15  1    3    3    0    0 +4.3683575787e+01 +2.8839594927e+01 -1.3161661873e+00 5.2391478806e+01 1.7770000000e+00 0.0000e+00 -1.0000e+00
       22  1    3    3    0    0 -1.4537929481e+01 -1.2086491449e+01 +3.0772166085e+01 3.6115936575e+01 0.0000000000e+00 0.0000e+00 1.0000e+00
<mgrwt>
<rscale>  2 0.12500000E+03</rscale>
<asrwt>0</asrwt>
<pdfrwt beam="1">  1       21 0.16475929E-01 0.12500000E+03</pdfrwt>
<pdfrwt beam="2">  1       21 0.51273422E-02 0.12500000E+03</pdfrwt>
<totfact> 0.85148796E+06</totfact>
</mgrwt>
</event>
<event>
 6      0 +4.1053447e-01 1.25000000e+02 7.54677100e-03 1.12640300e-01
       21 -1    0    0  502  501 +0.0000000000e+00 +0.0000000000e+00 +3.3756435883e+02 3.3756435883e+02 0.0000000000e+00 0.0000e+00 1.0000e+00
       21 -1    0    0  501  502 -0.0000000000e+00 -0.0000000000e+00 -1.1571867402e+01 1.1571867402e+01 0.0000000000e+00 0.0000e+00 1.0000e+00
       25  2    1    2    0    0 +0.0000000000e+00 +0.0000000000e+00 +3.2599249143e+02 3.4913622623e+02 1.2500000000e+02 0.0000e+00 0.0000e+00
      -15  1    3    3    0    0 -5.9715838182e+00 +4.7215697313e+01 +4.9949912071e+01 6.9015457188e+01 1.7770000000e+00 0.0000e+00 -1.0000e+00
       15  1    3    3    0    0 +5.9715832612e+00 -4.7215696129e+01 +2.7604257426e+02 2.8012076378e+02 1.7770000000e+00 0.0000e+00 -1.0000e+00
       22  1    3    3    0    0 +5.5692827926e-07 -1.1844158338e-06 +5.1249385402e-06 5.2894238832e-06 0.0000000000e+00 0.0000e+00 -1.0000e+00
<mgrwt>
<rscale>  2 0.12500000E+03</rscale>
<asrwt>0</asrwt>
<pdfrwt beam="1">  1       21 0.49641811E-01 0.12500000E+03</pdfrwt>
<pdfrwt beam="2">  1       21 0.17017454E-02 0.12500000E+03</pdfrwt>
<totfact> 0.58617511E+06</totfact>
</mgrwt>
</event>
<event>
 6      0 +4.1053447e-01 1.25000000e+02 7.54677100e-03 1.12640300e-01
       21 -1    0    0  502  501 +0.0000000000e+00 +0.0000000000e+00 +8.0798797559e+02 8.0798797559e+02 0.0000000000e+00 0.0000e+00 1.0000e+00
       21 -1    0    0  501  502 -0.0000000000e+00 -0.0000000000e+00 -4.8345397679e+00 4.8345397679e+00 0.0000000000e+00 0.0000e+00 1.0000e+00
       25  2    1    2    0    0 +0.0000000000e+00 +0.0000000000e+00 +8.0315343582e+02 8.1282251536e+02 1.2500000000e+02 0.0000e+00 0.0000e+00
      -15  1    3    3    0    0 -5.9273729097e+01 -1.8191868251e+01 +4.5142790578e+02 4.5566943158e+02 1.7770000000e+00 0.0000e+00 1.0000e+00
       15  1    3    3    0    0 +5.9273725112e+01 +1.8191867584e+01 +3.5172550918e+02 3.5715306252e+02 1.7770000000e+00 0.0000e+00 1.0000e+00
       22  1    3    3    0    0 +3.9843738571e-06 +6.6658403335e-07 +2.0687246955e-05 2.1077992217e-05 0.0000000000e+00 0.0000e+00 1.0000e+00
<mgrwt>
<rscale>  2 0.12500000E+03</rscale>
<asrwt>0</asrwt>
<pdfrwt beam="1">  1       21 0.11882167E+00 0.12500000E+03</pdfrwt>
<pdfrwt beam="2">  1       21 0.71096229E-03 0.12500000E+03</pdfrwt>
<totfact> 0.27752723E+06</totfact>
</mgrwt>
</event>
<event>
 6      0 +4.1053447e-01 1.25000000e+02 7.54677100e-03 1.12640300e-01
       21 -1    0    0  502  501 +0.0000000000e+00 +0.0000000000e+00 +3.9281165800e+01 3.9281165800e+01 0.0000000000e+00 0.0000e+00 1.0000e+00
       21 -1    0    0  501  502 -0.0000000000e+00 -0.0000000000e+00 -9.9443331694e+01 9.9443331694e+01 0.0000000000e+00 0.0000e+00 1.0000e+00
       25  2    1    2    0    0 +0.0000000000e+00 +0.0000000000e+00 -6.0162165893e+01 1.3872449749e+02 1.2500000000e+02 0.0000e+00 0.0000e+00
      -15  1    3    3    0    0 -3.6914428693e+01 +2.9598270971e+01 -7.5348153629e+01 8.8990081887e+01 1.7770000000e+00 0.0000e+00 -1.0000e+00
       15  1    3    3    0    0 +3.6653945268e+01 -2.9273027033e+01 +1.5037292130e+01 4.9291984125e+01 1.7770000000e+00 0.0000e+00 -1.0000e+00
       22  1    3    3    0    0 +2.6048342439e-01 -3.2524393793e-01 +1.4869560331e-01 4.4243148169e-01 0.0000000000e+00 0.0000e+00 -1.0000e+00
<mgrwt>
<rscale>  2 0.12500000E+03</rscale>
<asrwt>0</asrwt>
<pdfrwt beam="1">  1       21 0.57766421E-02 0.12500000E+03</pdfrwt>
<pdfrwt beam="2">  1       21 0.14624019E-01 0.12500000E+03</pdfrwt>
<totfact> 0.86560518E+06</totfact>
</mgrwt>
</event>
<event>
 6      0 +4.1053447e-01 1.25000000e+02 7.54677100e-03 1.12640300e-01
       21 -1    0    0  502  501 +0.0000000000e+00 +0.0000000000e+00 +8.9109942772e+01 8.9109942772e+01 0.0000000000e+00 0.0000e+00 -1.0000e+00
       21 -1    0    0  501  502 -0.0000000000e+00 -0.0000000000e+00 -4.3836297931e+01 4.3836297931e+01 0.0000000000e+00 0.0000e+00 -1.0000e+00
       25  2    1    2    0    0 +0.0000000000e+00 +0.0000000000e+00 +4.5273644841e+01 1.3294624070e+02 1.2500000000e+02 0.0000e+00 0.0000e+00
      -15  1    3    3    0    0 +6.1653932308e+01 +6.2432250375e+00 +1.4201228154e+01 6.3600454700e+01 1.7770000000e+00 0.0000e+00 -1.0000e+00
       15  1    3    3    0    0 -6.1653932311e+01 -6.2432250380e+00 +3.1072416688e+01 6.9345786001e+01 1.7770000000e+00 0.0000e+00 -1.0000e+00
       22  1    3    3    0    0 +3.0417946185e-09 +5.0004957207e-10 +5.5473676304e-10 3.1321393570e-09 0.0000000000e+00 0.0000e+00 1.0000e+00
<mgrwt>
<rscale>  2 0.12500000E+03</rscale>
<asrwt>0</asrwt>
<pdfrwt beam="1">  1       21 0.13104403E-01 0.12500000E+03</pdfrwt>
<pdfrwt beam="2">  1       21 0.64465144E-02 0.12500000E+03</pdfrwt>
<totfact> 0.87567601E+06</totfact>
</mgrwt>
</event>
<event>
 6      0 +4.1053447e-01 1.25000000e+02 7.54677100e-03 1.12640300e-01
       21 -1    0    0  502  501 +0.0000000000e+00 +0.0000000000e+00 +3.9174136948e+02 3.9174136948e+02 0.0000000000e+00 0.0000e+00 1.0000e+00
       21 -1    0    0  501  502 -0.0000000000e+00 -0.0000000000e+00 -9.9715023848e+00 9.9715023848e+00 0.0000000000e+00 0.0000e+00 1.0000e+00
       25  2    1    2    0    0 +0.0000000000e+00 +0.0000000000e+00 +3.8176986710e+02 4.0171287187e+02 1.2500000000e+02 0.0000e+00 0.0000e+00
      -15  1    3    3    0    0 -5.3774695469e+01 -2.3095657693e+01 +1.2062597358e+02 1.3408545972e+02 1.7770000000e+00 0.0000e+00 -1.0000e+00
       15  1    3    3    0    0 +5.3774561867e+01 +2.3095309733e+01 +2.6114198494e+02 2.6762546752e+02 1.7770000000e+00 0.0000e+00 -1.0000e+00
       22  1    3    3    0    0 +1.3360190696e-04 +3.4795989597e-04 +1.9085742515e-03 1.9446288160e-03 0.0000000000e+00 0.0000e+00 -1.0000e+00
<mgrwt>
<rscale>  2 0.12500000E+03</rscale>
<asrwt>0</asrwt>
<pdfrwt beam="1">  1       21 0.57609015E-01 0.12500000E+03</pdfrwt>
<pdfrwt beam="2">  1       21 0.14663977E-02 0.12500000E+03</pdfrwt>
<totfact> 0.53497997E+06</totfact>
</mgrwt>
</event>
<event>
 6      0 +4.1053447e-01 1.25000000e+02 7.54677100e-03 1.12640300e-01
       21 -1    0    0  502  501 +0.0000000000e+00 +0.0000000000e+00 +5.7488722770e+00 5.7488722770e+00 0.0000000000e+00 0.0000e+00 1.0000e+00
       21 -1    0    0  501  502 -0.0000000000e+00 -0.0000000000e+00 -6.7948108982e+02 6.7948108982e+02 0.0000000000e+00 0.0000e+00 1.0000e+00
       25  2    1    2    0    0 +0.0000000000e+00 +0.0000000000e+00 -6.7373221754e+02 6.8522996210e+02 1.2500000000e+02 0.0000e+00 0.0000e+00
      -15  1    3    3    0    0 -1.4281494465e+01 +4.4158914597e+01 -1.0760187182e+02 1.1719765940e+02 1.7770000000e+00 0.0000e+00 -1.0000e+00
       15  1    3    3    0    0 +1.4281494464e+01 -4.4158914598e+01 -5.6613034555e+02 5.6803230252e+02 1.7770000000e+00 0.0000e+00 -1.0000e+00
       22  1    3    3    0    0 +4.0667638115e-10 +2.9790642449e-10 -5.6060195738e-10 7.5392869123e-10 0.0000000000e+00 0.0000e+00 -1.0000e+00
<mgrwt>
<rscale>  2 0.12500000E+03</rscale>
<asrwt>0</asrwt>
<pdfrwt beam="1">  1       21 0.84542258E-03 0.12500000E+03</pdfrwt>
<pdfrwt beam="2">  1       21 0.99923668E-01 0.12500000E+03</pdfrwt>
<totfact> 0.33673213E+06</totfact>
</mgrwt>
</event>
<event>
 6      0 +4.1053447e-01 1.25000000e+02 7.54677100e-03 1.12640300e-01
       21 -1    0    0  502  501 +0.0000000000e+00 +0.0000000000e+00 +3.4293105962e+01 3.4293105962e+01 0.0000000000e+00 0.0000e+00 1.0000e+00
       21 -1    0    0  501  502 -0.0000000000e+00 -0.0000000000e+00 -1.1390773423e+02 1.1390773423e+02 0.0000000000e+00 0.0000e+00 1.0000e+00
       25  2    1    2    0    0 +0.0000000000e+00 +0.0000000000e+00 -7.9614628271e+01 1.4820084020e+02 1.2500000000e+02 0.0000e+00 0.0000e+00
      -15  1    3    3    0    0 +1.2115530425e+01 -1.3035987894e+01 -1.1080848735e+02 1.1224260179e+02 1.7770000000e+00 0.0000e+00 1.0000e+00
       15  1    3    3    0    0 -1.2113916118e+01 +1.3033628672e+01 +3.1192922452e+01 3.5955230219e+01 1.7770000000e+00 0.0000e+00 1.0000e+00
       22  1    3    3    0    0 -1.6143071233e-03 +2.3592222921e-03 +9.3663162346e-04 3.0081881772e-03 0.0000000000e+00 0.0000e+00 1.0000e+00
<mgrwt>
<rscale>  2 0.12500000E+03</rscale>
<asrwt>0</asrwt>
<pdfrwt beam="1">  1       21 0.50431038E-02 0.12500000E+03</pdfrwt>
<pdfrwt beam="2">  1       21 0.16751137E-01 0.12500000E+03</pdfrwt>
<totfact> 0.84928450E+06</totfact>
</mgrwt>
</event>
<event>
 6      0 +4.1053447e-01 1.25000000e+02 7.54677100e-03 1.12640300e-01
       21 -1    0    0  502  501 +0.0000000000e+00 +0.0000000000e+00 +1.2942728629e+01 1.2942728629e+01 0.0000000000e+00 0.0000e+00 -1.0000e+00
       21 -1    0    0  501  502 -0.0000000000e+00 -0.0000000000e+00 -3.0181039191e+02 3.0181039191e+02 0.0000000000e+00 0.0000e+00 -1.0000e+00
       25  2    1    2    0    0 +0.0000000000e+00 +0.0000000000e+00 -2.8886766328e+02 3.1475312054e+02 1.2500000000e+02 0.0000e+00 0.0000e+00
      -15  1    3    3    0    0 +5.7703805326e+01 +2.2211556189e+01 -1.2191055468e+02 1.3670560870e+02 1.7770000000e+00 0.0000e+00 1.0000e+00
       15  1    3    3    0    0 -5.7703803024e+01 -2.2211557194e+01 -1.6695710660e+02 1.7804750863e+02 1.7770000000e+00 0.0000e+00 1.0000e+00
       22  1    3    3    0    0 -2.3018966506e-06 +1.0056866555e-06 -1.9950131119e-06 3.2078358991e-06 0.0000000000e+00 0.0000e+00 -1.0000e+00
<mgrwt>
<rscale>  2 0.12500000E+03</rscale>
<asrwt>0</asrwt>
<pdfrwt beam="1">  1       21 0.19033423E-02 0.12500000E+03</pdfrwt>
<pdfrwt beam="2">  1       21 0.44383883E-01 0.12500000E+03</pdfrwt>
<totfact> 0.62284628E+06</totfact>
</mgrwt>
</event>
<event>
 6      0 +4.1053447e-01 1.25000000e+02 7.54677100e-03 1.12640300e-01
       21 -1    0    0  502  501 +0.0000000000e+00 +0.0000000000e+00 +9.1122489851e+01 9.1122489851e+01 0.0000000000e+00 0.0000e+00 -1.0000e+00
       21 -1    0    0  501  502 -0.0000000000e+00 -0.0000000000e+00 -4.2868121870e+01 4.2868121870e+01 0.0000000000e+00 0.0000e+00 -1.0000e+00
       25  2    1    2    0    0 +0.0000000000e+00 +0.0000000000e+00 +4.8254367982e+01 1.3399061172e+02 1.2500000000e+02 0.0000e+00 0.0000e+00
      -15  1    3    3    0    0 +5.7089373145e+01 +9.3437990386e+00 +4.9416151389e+01 7.6102673105e+01 1.7770000000e+00 0.0000e+00 -1.0000e+00
       15  1    3    3    0    0 -5.7088190653e+01 -9.3437882084e+00 -1.1616027328e+00 5.7886742352e+01 1.7770000000e+00 0.0000e+00 -1.0000e+00
       22  1    3    3    0    0 -1.1824919690e-03 -1.0830126828e-05 -1.8067452091e-04 1.1962641141e-03 0.0000000000e+00 0.0000e+00 1.0000e+00
<mgrwt>
<rscale>  2 0.12500000E+03</rscale>
<asrwt>0</asrwt>
<pdfrwt beam="1">  1       21 0.13400366E-01 0.12500000E+03</pdfrwt>
<pdfrwt beam="2">  1       21 0.63041356E-02 0.12500000E+03</pdfrwt>
<totfact> 0.87383011E+06</totfact>
</mgrwt>
</event>
<event>
 6      0 +4.1053447e-01 1.25000000e+02 7.54677100e-03 1.12640300e-01
       21 -1    0    0  502  501 +0.0000000000e+00 +0.0000000000e+00 +2.7475567389e+02 2.7475567389e+02 0.0000000000e+00 0.0000e+00 1.0000e+00
       21 -1    0    0  501  502 -0.0000000000e+00 -0.0000000000e+00 -1.4217176827e+01 1.4217176827e+01 0.0000000000e+00 0.0000e+00 1.0000e+00
       25  2    1    2    0    0 +0.0000000000e+00 +0.0000000000e+00 +2.6053849706e+02 2.8897285072e+02 1.2500000000e+02 0.0000e+00 0.0000e+00
      -15  1    3    3    0    0 -5.2406248101e-01 +4.6934065426e+01 +3.4953884424e+01 5.8549234872e+01 1.7770000000e+00 0.0000e+00 1.0000e+00
       15  1    3    3    0    0 +5.2381756995e-01 -4.6935583660e+01 +2.2558240871e+02 2.3042092841e+02 1.7770000000e+00 0.0000e+00 1.0000e+00
       22  1    3    3    0    0 +2.4491106013e-04 +1.5182345535e-03 +2.2038977830e-03 2.6874119567e-03 0.0000000000e+00 0.0000e+00 1.0000e+00
<mgrwt>
<rscale>  2 0.12500000E+03</rscale>
<asrwt>0</asrwt>
<pdfrwt beam="1">  1       21 0.40405243E-01 0.12500000E+03</pdfrwt>
<pdfrwt beam="2">  1       21 0.20907615E-02 0.12500000E+03</pdfrwt>
<totfact> 0.65230135E+06</totfact>
</mgrwt>
</event>
<event>
 6      0 +4.1053447e-01 1.25000000e+02 7.54677100e-03 1.12640300e-01
       21 -1    0    0  502  501 +0.0000000000e+00 +0.0000000000e+00 +2.9272458062e+01 2.9272458062e+01 0.0000000000e+00 0.0000e+00 -1.0000e+00
       21 -1    0    0  501  502 -0.0000000000e+00 -0.0000000000e+00 -1.3344455022e+02 1.3344455022e+02 0.0000000000e+00 0.0000e+00 -1.0000e+00
       25  2    1    2    0    0 +0.0000000000e+00 +0.0000000000e+00 -1.0417209216e+02 1.6271700829e+02 1.2500000000e+02 0.0000e+00 0.0000e+00
      -15  1    3    3    0    0 +5.0954882578e+01 -4.4198816908e+00 -9.8788389602e+01 1.1125753485e+02 1.7770000000e+00 0.0000e+00 -1.0000e+00
       15  1    3    3    0    0 -5.0954882515e+01 +4.4198817974e+00 -5.3837024419e+00 5.1459473261e+01 1.7770000000e+00 0.0000e+00 -1.0000e+00
       22  1    3    3    0    0 -6.2680803739e-08 -1.0663396815e-07 -1.1090655493e-07 1.6613232752e-07 0.0000000000e+00 0.0000e+00 1.0000e+00
<mgrwt>
<rscale>  2 0.12500000E+03</rscale>
<asrwt>0</asrwt>
<pdfrwt beam="1">  1       21 0.43047733E-02 0.12500000E+03</pdfrwt>
<pdfrwt beam="2">  1       21 0.19624198E-01 0.12500000E+03</pdfrwt>
<totfact> 0.82536775E+06</totfact>
</mgrwt>
</event>
<event>
 6      0 +4.1053447e-01 1.25000000e+02 7.54677100e-03 1.12640300e-01
       21 -1    0    0  502  501 +0.0000000000e+00 +0.0000000000e+00 +2.1581805364e+01 2.1581805364e+01 0.0000000000e+00 0.0000e+00 1.0000e+00
       21 -1    0    0  501  502 -0.0000000000e+00 -0.0000000000e+00 -1.8099736950e+02 1.8099736950e+02 0.0000000000e+00 0.0000e+00 1.0000e+00
       25  2    1    2    0    0 +0.0000000000e+00 +0.0000000000e+00 -1.5941556414e+02 2.0257917487e+02 1.2500000000e+02 0.0000e+00 0.0000e+00
      -15  1    3    3    0    0 +4.7548797226e+00 +2.0827746564e+01 -5.7393519915e+00 2.2192381540e+01 1.7770000000e+00 0.0000e+00 -1.0000e+00
       15  1    3    3    0    0 +2.3103186657e+01 -6.0931716460e+00 -4.6055405841e-01 2.3963593501e+01 1.7770000000e+00 0.0000e+00 -1.0000e+00
       22  1    3    3    0    0 -2.7858066380e+01 -1.4734574918e+01 -1.5321565809e+02 1.5642319982e+02 0.0000000000e+00 0.0000e+00 -1.0000e+00
<mgrwt>
<rscale>  2 0.12500000E+03</rscale>
<asrwt>0</asrwt>
<pdfrwt beam="1">  1       21 0.31737949E-02 0.12500000E+03</pdfrwt>
<pdfrwt beam="2">  1       21 0.26617260E-01 0.12500000E+03</pdfrwt>
<totfact> 0.76444242E+06</totfact>
</mgrwt>
</event>
<event>
 6      0 +4.1053447e-01 1.25000000e+02 7.54677100e-03 1.12640300e-01
       21 -1    0    0  502  501 +0.0000000000e+00 +0.0000000000e+00 +5.3143645069e+02 5.3143645069e+02 0.0000000000e+00 0.0000e+00 -1.0000e+00
       21 -1    0    0  501  502 -0.0000000000e+00 -0.0000000000e+00 -7.3503614494e+00 7.3503614494e+00 0.0000000000e+00 0.0000e+00 -1.0000e+00
       25  2    1    2    0    0 +0.0000000000e+00 +0.0000000000e+00 +5.2408608925e+02 5.3878681214e+02 1.2500000000e+02 0.0000e+00 0.0000e+00
      -15  1    3    3    0    0 -5.2964410556e+01 -2.8131676700e+01 +1.8663353189e+02 1.9604043709e+02 1.7770000000e+00 0.0000e+00 1.0000e+00
       15  1    3    3    0    0 +5.2969222132e+01 +2.8131370399e+01 +3.3742451294e+02 3.4271791922e+02 1.7770000000e+00 0.0000e+00 1.0000e+00
       22  1    3    3    0    0 -4.8115753529e-03 +3.0630068080e-04 +2.8044583965e-02 2.8455997035e-02 0.0000000000e+00 0.0000e+00 -1.0000e+00
<mgrwt>
<rscale>  2 0.12500000E+03</rscale>
<asrwt>0</asrwt>
<pdfrwt beam="1">  1       21 0.78152393E-01 0.12500000E+03</pdfrwt>
<pdfrwt beam="2">  1       21 0.10809359E-02 0.12500000E+03</pdfrwt>
<totfact> 0.42558059E+06</totfact>
</mgrwt>
</event>
<event>
 6      0 +4.1053447e-01 1.25000000e+02 7.54677100e-03 1.12640300e-01
       21 -1    0    0  502  501 +0.0000000000e+00 +0.0000000000e+00 +1.0940915355e+01 1.0940915355e+01 0.0000000000e+00 0.0000e+00 1.0000e+00
       21 -1    0    0  501  502 -0.0000000000e+00 -0.0000000000e+00 -3.5703137016e+02 3.5703137016e+02 0.0000000000e+00 0.0000e+00 1.0000e+00
       25  2    1    2    0    0 +0.0000000000e+00 +0.0000000000e+00 -3.4609045481e+02 3.6797228552e+02 1.2500000000e+02 0.0000e+00 0.0000e+00
      -15  1    3    3    0    0 +6.2094973624e+01 -3.6439947565e+00 -1.9021727420e+02 2.0013703700e+02 1.7770000000e+00 0.0000e+00 1.0000e+00
       15  1    3    3    0    0 -6.2094973756e+01 +3.6439946840e+00 -1.5587318031e+02 1.6783524818e+02 1.7770000000e+00 0.0000e+00 1.0000e+00
       22  1    3    3    0    0 +1.3210175518e-07 +7.2507357086e-08 -3.0143048992e-07 3.3699930387e-07 0.0000000000e+00 0.0000e+00 1.0000e+00
<mgrwt>
<rscale>  2 0.12500000E+03</rscale>
<asrwt>0</asrwt>
<pdfrwt beam="1">  1       21 0.16089584E-02 0.12500000E+03</pdfrwt>
<pdfrwt beam="2">  1       21 0.52504605E-01 0.12500000E+03</pdfrwt>
<totfact> 0.56720301E+06</totfact>
</mgrwt>
</event>
<event>
 6      0 +4.1053447e-01 1.25000000e+02 7.54677100e-03 1.12640300e-01
       21 -1    0    0  502  501 +0.0000000000e+00 +0.0000000000e+00 +9.2306028151e+00 9.2306028151e+00 0.0000000000e+00 0.0000e+00 -1.0000e+00
       21 -1    0    0  501  502 -0.0000000000e+00 -0.0000000000e+00 -4.2318471266e+02 4.2318471266e+02 0.0000000000e+00 0.0000e+00 -1.0000e+00
       25  2    1    2    0    0 +0.0000000000e+00 +0.0000000000e+00 -4.1395410985e+02 4.3241531548e+02 1.2500000000e+02 0.0000e+00 0.0000e+00
      -15  1    3    3    0    0 -2.9603011027e+00 +4.6549078164e+01 -3.4920971453e+02 3.5231543041e+02 1.7770000000e+00 0.0000e+00 -1.0000e+00
       15  1    3    3    0    0 +1.0250032051e+00 -3.4593450170e+01 -4.3170231451e+01 5.5358685306e+01 1.7770000000e+00 0.0000e+00 -1.0000e+00
       22  1    3    3    0    0 +1.9352978975e+00 -1.1955627994e+01 -2.1574163872e+01 2.4741199758e+01 0.0000000000e+00 0.0000e+00 1.0000e+00
<mgrwt>
<rscale>  2 0.12500000E+03</rscale>
<asrwt>0</asrwt>
<pdfrwt beam="1">  1       21 0.13574416E-02 0.12500000E+03</pdfrwt>
<pdfrwt beam="2">  1       21 0.62233045E-01 0.12500000E+03</pdfrwt>
<totfact> 0.50763879E+06</totfact>
</mgrwt>
</event>
<event>
 6      0 +4.1053447e-01 1.25000000e+02 7.54677100e-03 1.12640300e-01
       21 -1    0    0  502  501 +0.0000000000e+00 +0.0000000000e+00 +1.6262519193e+01 1.6262519193e+01 0.0000000000e+00 0.0000e+00 1.0000e+00
       21 -1    0    0  501  502 -0.0000000000e+00 -0.0000000000e+00 -2.4019956278e+02 2.4019956278e+02 0.0000000000e+00 0.0000e+00 1.0000e+00
       25  2    1    2    0    0 +0.0000000000e+00 +0.0000000000e+00 -2.2393704359e+02 2.5646208198e+02 1.2500000000e+02 0.0000e+00 0.0000e+00
      -15  1    3    3    0    0 +3.2850648661e+01 -1.8296258828e+01 -9.6060454506e+00 3.8850380213e+01 1.7770000000e+00 0.0000e+00 -1.0000e+00
       15  1    3    3    0    0 -3.2850648893e+01 +1.8296258968e+01 -2.1433099747e+02 2.1761170104e+02 1.7770000000e+00 0.0000e+00 -1.0000e+00
       22  1    3    3    0    0 +2.3173968092e-07 -1.4037431048e-07 -6.5701814762e-07 7.1069056069e-07 0.0000000000e+00 0.0000e+00 1.0000e+00
<mgrwt>
<rscale>  2 0.12500000E+03</rscale>
<asrwt>0</asrwt>
<pdfrwt beam="1">  1       21 0.23915469E-02 0.12500000E+03</pdfrwt>
<pdfrwt beam="2">  1       21 0.35323466E-01 0.12500000E+03</pdfrwt>
<totfact> 0.69179624E+06</totfact>
</mgrwt>
</event>
<event>
 6      0 +4.1053447e-01 1.25000000e+02 7.54677100e-03 1.12640300e-01
       21 -1    0    0  502  501 +0.0000000000e+00 +0.0000000000e+00 +4.8867197580e+02 4.8867197580e+02 0.0000000000e+00 0.0000e+00 -1.0000e+00
       21 -1    0    0  501  502 -0.0000000000e+00 -0.0000000000e+00 -7.9936034670e+00 7.9936034670e+00 0.0000000000e+00 0.0000e+00 -1.0000e+00
       25  2    1    2    0    0 +0.0000000000e+00 +0.0000000000e+00 +4.8067837233e+02 4.9666557927e+02 1.2500000000e+02 0.0000e+00 0.0000e+00
      -15  1    3    3    0    0 -5.3499524315e+00 -4.9743418898e+01 +3.8901070188e+02 3.9221870636e+02 1.7770000000e+00 0.0000e+00 -1.0000e+00
       15  1    3    3    0    0 +5.3499524147e+00 +4.9743418057e+01 +9.1667667934e+01 1.0444687025e+02 1.7770000000e+00 0.0000e+00 -1.0000e+00
       22  1    3    3    0    0 +1.6750212060e-08 +8.4120430765e-07 +2.4245363984e-06 2.5663752656e-06 0.0000000000e+00 0.0000e+00 -1.0000e+00
<mgrwt>
<rscale>  2 0.12500000E+03</rscale>
<asrwt>0</asrwt>
<pdfrwt beam="1">  1       21 0.71863505E-01 0.12500000E+03</pdfrwt>
<pdfrwt beam="2">  1       21 0.11755303E-02 0.12500000E+03</pdfrwt>
<totfact> 0.45574998E+06</totfact>
</mgrwt>
</event>
<event>
 6      0 +4.1053447e-01 1.25000000e+02 7.54677100e-03 1.12640300e-01
       21 -1    0    0  502  501 +0.0000000000e+00 +0.0000000000e+00 +1.1196877348e+02 1.1196877348e+02 0.0000000000e+00 0.0000e+00 -1.0000e+00
       21 -1    0    0  501  502 -0.0000000000e+00 -0.0000000000e+00 -3.4886958913e+01 3.4886958913e+01 0.0000000000e+00 0.0000e+00 -1.0000e+00
       25  2    1    2    0    0 +0.0000000000e+00 +0.0000000000e+00 +7.7081814569e+01 1.4685573239e+02 1.2500000000e+02 0.0000e+00 0.0000e+00
      -15  1    3    3    0    0 -5.5671818439e+01 +1.8284700218e+01 +1.3088422755e+01 6.0067846388e+01 1.7770000000e+00 0.0000e+00 1.0000e+00
       15  1    3    3    0    0 +5.5672185353e+01 -1.8284345669e+01 +6.3993565129e+01 8.6787347151e+01 1.7770000000e+00 0.0000e+00 1.0000e+00
       22  1    3    3    0    0 -3.6691415917e-04 -3.5454972414e-04 -1.7331165821e-04 5.3885845819e-04 0.0000000000e+00 0.0000e+00 1.0000e+00
<mgrwt>
<rscale>  2 0.12500000E+03</rscale>
<asrwt>0</asrwt>
<pdfrwt beam="1">  1       21 0.16465996E-01 0.12500000E+03</pdfrwt>
<pdfrwt beam="2">  1       21 0.51304351E-02 0.12500000E+03</pdfrwt>
<totfact> 0.85156715E+06</totfact>
</mgrwt>
</event>
<event>
 6      0 +4.1053447e-01 1.25000000e+02 7.54677100e-03 1.12640300e-01
       21 -1    0    0  502  501 +0.0000000000e+00 +0.0000000000e+00 +1.2508979122e+01 1.2508979122e+01 0.0000000000e+00 0.0000e+00 -1.0000e+00
       21 -1    0    0  501  502 -0.0000000000e+00 -0.0000000000e+00 -3.1227568308e+02 3.1227568308e+02 0.0000000000e+00 0.0000e+00 -1.0000e+00
       25  2    1    2    0    0 +0.0000000000e+00 +0.0000000000e+00 -2.9976670396e+02 3.2478466220e+02 1.2500000000e+02 0.0000e+00 0.0000e+00
      -15  1    3    3    0    0 +4.2312101588e+01 +1.9503935466e+01 -4.1738355725e+01 6.2577675788e+01 1.7770000000e+00 0.0000e+00 1.0000e+00
       15  1    3    3    0    0 -4.2312094297e+01 -1.9503933363e+01 -2.5802828592e+02 2.6220692364e+02 1.7770000000e+00 0.0000e+00 1.0000e+00
       22  1    3    3    0    0 -7.2905133453e-06 -2.1031423224e-06 -6.2337420347e-05 6.2797521989e-05 0.0000000000e+00 0.0000e+00 -1.0000e+00
<mgrwt>
<rscale>  2 0.12500000E+03</rscale>
<asrwt>0</asrwt>
<pdfrwt beam="1">  1       21 0.18395556E-02 0.12500000E+03</pdfrwt>
<pdfrwt beam="2">  1       21 0.45922897E-01 0.12500000E+03</pdfrwt>
<totfact> 0.61184972E+06</totfact>
</mgrwt>
</event>
<event>
 6      0 +4.1053447e-01 1.25000000e+02 7.54677100e-03 1.12640300e-01
       21 -1    0    0  502  501 +0.0000000000e+00 +0.0000000000e+00 +9.9215138815e+01 9.9215138815e+01 0.0000000000e+00 0.0000e+00 1.0000e+00
       21 -1    0    0  501  502 -0.0000000000e+00 -0.0000000000e+00 -3.9371511713e+01 3.9371511713e+01 0.0000000000e+00 0.0000e+00 1.0000e+00
       25  2    1    2    0    0 +0.0000000000e+00 +0.0000000000e+00 +5.9843627102e+01 1.3858665053e+02 1.2500000000e+02 0.0000e+00 0.0000e+00
      -15  1    3    3    0    0 -3.5900410241e+01 -9.7711190259e+00 +8.4845603081e+01 9.2662011168e+01 1.7770000000e+00 0.0000e+00 -1.0000e+00
       15  1    3    3    0    0 +3.6133767124e+01 +9.8088935414e+00 -2.5526022624e+01 4.5349741775e+01 1.7770000000e+00 0.0000e+00 -1.0000e+00
       22  1    3    3    0    0 -2.3335688348e-01 -3.7774515574e-02 +5.2404664386e-01 5.7489758569e-01 0.0000000000e+00 0.0000e+00 1.0000e+00
<mgrwt>
<rscale>  2 0.12500000E+03</rscale>
<asrwt>0</asrwt>
<pdfrwt beam="1">  1       21 0.14590462E-01 0.12500000E+03</pdfrwt>
<pdfrwt beam="2">  1       21 0.57899282E-02 0.12500000E+03</pdfrwt>
<totfact> 0.86584275E+06</totfact>
</mgrwt>
</event>
<event>
 6      0 +4.1053447e-01 1.25000000e+02 7.54677100e-03 1.12640300e-01
       21 -1    0    0  502  501 +0.0000000000e+00 +0.0000000000e+00 +8.2377441311e+00 8.2377441311e+00 0.0000000000e+00 0.0000e+00 1.0000e+00
       21 -1    0    0  501  502 -0.0000000000e+00 -0.0000000000e+00 -4.7418928505e+02 4.7418928505e+02 0.0000000000e+00 0.0000e+00 1.0000e+00
       25  2    1    2    0    0 +0.0000000000e+00 +0.0000000000e+00 -4.6595154092e+02 4.8242702918e+02 1.2500000000e+02 0.0000e+00 0.0000e+00
      -15  1    3    3    0    0 +3.7139276936e+01 +4.7836291328e+01 -2.7225153212e+02 2.7891161885e+02 1.7770000000e+00 0.0000e+00 -1.0000e+00
       15  1    3    3    0    0 -3.3414659499e+01 -4.6967461807e+01 -1.8804106845e+02 1.9668523862e+02 1.7770000000e+00 0.0000e+00 -1.0000e+00
       22  1    3    3    0    0 -3.7246174370e+00 -8.6882952063e-01 -5.6589403811e+00 6.8301717419e+00 0.0000000000e+00 0.0000e+00 -1.0000e+00
<mgrwt>
<rscale>  2 0.12500000E+03</rscale>
<asrwt>0</asrwt>
<pdfrwt beam="1">  1       21 0.12114332E-02 0.12500000E+03</pdfrwt>
<pdfrwt beam="2">  1       21 0.69733706E-01 0.12500000E+03</pdfrwt>
<totfact> 0.46662494E+06</totfact>
</mgrwt>
</event>
<event>
 6      0 +4.1053447e-01 1.25000000e+02 7.54677100e-03 1.12640300e-01
       21 -1    0    0  502  501 +0.0000000000e+00 +0.0000000000e+00 +1.8612356479e+01 1.8612356479e+01 0.0000000000e+00 0.0000e+00 -1.0000e+00
       21 -1    0    0  501  502 -0.0000000000e+00 -0.0000000000e+00 -2.0987401592e+02 2.0987401592e+02 0.0000000000e+00 0.0000e+00 -1.0000e+00
       25  2    1    2    0    0 +0.0000000000e+00 +0.0000000000e+00 -1.9126165944e+02 2.2848637240e+02 1.2500000000e+02 0.0000e+00 0.0000e+00
      -15  1    3    3    0    0 +2.1543132694e+00 +6.1963148578e+01 -1.0967343270e+02 1.2599798576e+02 1.7770000000e+00 0.0000e+00 -1.0000e+00
       15  1    3    3    0    0 -2.1543134539e+00 -6.1963148846e+01 -8.1588226443e+01 1.0248838619e+02 1.7770000000e+00 0.0000e+00 -1.0000e+00
       22  1    3    3    0    0 +1.8448971433e-07 +2.6803687897e-07 -2.9093013902e-07 4.3648661946e-07 0.0000000000e+00 0.0000e+00 1.0000e+00
<mgrwt>
<rscale>  2 0.12500000E+03</rscale>
<asrwt>0</asrwt>
<pdfrwt beam="1">  1       21 0.27371113E-02 0.12500000E+03</pdfrwt>
<pdfrwt beam="2">  1       21 0.30863825E-01 0.12500000E+03</pdfrwt>
<totfact> 0.72840876E+06</totfact>
</mgrwt>
</event>
<event>
 6      0 +4.1053447e-01 1.25000000e+02 7.54677100e-03 1.12640300e-01
       21 -1    0    0  502  501 +0.0000000000e+00 +0.0000000000e+00 +4.5044536902e+01 4.5044536902e+01 0.0000000000e+00 0.0000e+00 1.0000e+00
       21 -1    0    0  501  502 -0.0000000000e+00 -0.0000000000e+00 -8.6719728267e+01 8.6719728267e+01 0.0000000000e+00 0.0000e+00 1.0000e+00
       25  2    1    2    0    0 +0.0000000000e+00 +0.0000000000e+00 -4.1675191365e+01 1.3176426517e+02 1.2500000000e+02 0.0000e+00 0.0000e+00
      -15  1    3    3    0    0 -4.3364035808e+01 -1.5586176422e+00 -6.8216752531e+01 8.0867496222e+01 1.7770000000e+00 0.0000e+00 -1.0000e+00
       15  1    3    3    0    0 +4.3364035810e+01 +1.5586176407e+00 +2.6541561166e+01 5.0896768943e+01 1.7770000000e+00 0.0000e+00 -1.0000e+00
       22  1    3    3    0    0 -1.7593078318e-09 +1.5360987206e-09 -8.3057271741e-11 2.3370198623e-09 0.0000000000e+00 0.0000e+00 1.0000e+00
<mgrwt>
<rscale>  2 0.12500000E+03</rscale>
<asrwt>0</asrwt>
<pdfrwt beam="1">  1       21 0.66241966E-02 0.12500000E+03</pdfrwt>
<pdfrwt beam="2">  1       21 0.12752901E-01 0.12500000E+03</pdfrwt>
<totfact> 0.87778452E+06</totfact>
</mgrwt>
</event>
<event>
 6      0 +4.1053447e-01 1.25000000e+02 7.54677100e-03 1.12640300e-01
       21 -1    0    0  502  501 +0.0000000000e+00 +0.0000000000e+00 +4.8864451474e+02 4.8864451474e+02 0.0000000000e+00 0.0000e+00 1.0000e+00
       21 -1    0    0  501  502 -0.0000000000e+00 -0.0000000000e+00 -7.9940526951e+00 7.9940526951e+00 0.0000000000e+00 0.0000e+00 1.0000e+00
       25  2    1    2    0    0 +0.0000000000e+00 +0.0000000000e+00 +4.8065046205e+02 4.9663856744e+02 1.2500000000e+02 0.0000e+00 0.0000e+00
      -15  1    3    3    0    0 -5.5511647608e+01 +7.6377381199e+00 +2.7110659112e+02 2.7684258983e+02 1.7770000000e+00 0.0000e+00 1.0000e+00
       15  1    3    3    0    0 +6.0429799592e+01 -7.6910673388e+00 +1.8551017603e+02 1.9526417064e+02 1.7770000000e+00 0.0000e+00 1.0000e+00
       22  1    3    3    0    0 -4.9181519838e+00 +5.3329218969e-02 +2.4033694897e+01 2.4531806973e+01 0.0000000000e+00 0.0000e+00 -1.0000e+00
<mgrwt>
<rscale>  2 0.12500000E+03</rscale>
<asrwt>0</asrwt>
<pdfrwt beam="1">  1       21 0.71859467E-01 0.12500000E+03</pdfrwt>
<pdfrwt beam="2">  1       21 0.11755963E-02 0.12500000E+03</pdfrwt>
<totfact> 0.45577024E+06</totfact>
</mgrwt>
</event>
<event>
 6      0 +4.1053447e-01 1.25000000e+02 7.54677100e-03 1.12640300e-01
       21 -1    0    0  502  501 +0.0000000000e+00 +0.0000000000e+00 +9.3645846973e+01 9.3645846973e+01 0.0000000000e+00 0.0000e+00 1.0000e+00
       21 -1    0    0  501  502 -0.0000000000e+00 -0.0000000000e+00 -4.1713008385e+01 4.1713008385e+01 0.0000000000e+00 0.0000e+00 1.0000e+00
       25  2    1    2    0    0 +0.0000000000e+00 +0.0000000000e+00 +5.1932838588e+01 1.3535885536e+02 1.2500000000e+02 0.0000e+00 0.0000e+00
      -15  1    3    3    0    0 -4.1490637254e+01 -7.7842134811e+00 -2.3904732597e+01 4.8545452194e+01 1.7770000000e+00 0.0000e+00 1.0000e+00
       15  1    3    3    0    0 +4.1490251792e+01 +7.7842717066e+00 +7.5837165574e+01 8.6812840589e+01 1.7770000000e+00 0.0000e+00 1.0000e+00
       22  1    3    3    0    0 +3.8546190836e-04 -5.8225438894e-05 +4.0560878881e-04 5.6257406098e-04 0.0000000000e+00 0.0000e+00 1.0000e+00
<mgrwt>
<rscale>  2 0.12500000E+03</rscale>
<asrwt>0</asrwt>
<pdfrwt beam="1">  1       21 0.13771448E-01 0.12500000E+03</pdfrwt>
<pdfrwt beam="2">  1       21 0.61342659E-02 0.12500000E+03</pdfrwt>
<totfact> 0.87143194E+06</totfact>
</mgrwt>
</event>
<event>
 6      0 +4.1053447e-01 1.25000000e+02 7.54677100e-03 1.12640300e-01
       21 -1    0    0  502  501 +0.0000000000e+00 +0.0000000000e+00 +1.0680309433e+01 1.0680309433e+01 0.0000000000e+00 0.0000e+00 -1.0000e+00
       21 -1    0    0  501  502 -0.0000000000e+00 -0.0000000000e+00 -3.6574314859e+02 3.6574314859e+02 0.0000000000e+00 0.0000e+00 -1.0000e+00
       25  2    1    2    0    0 +0.0000000000e+00 +0.0000000000e+00 -3.5506283916e+02 3.7642345802e+02 1.2500000000e+02 0.0000e+00 0.0000e+00
      -15  1    3    3    0    0 +4.5183309081e+01 -4.2328969584e+01 -1.5242040822e+02 1.6452480560e+02 1.7770000000e+00 0.0000e+00 1.0000e+00
       15  1    3    3    0    0 -4.5184947117e+01 +4.2331037370e+01 -2.0263241146e+02 2.1188829150e+02 1.7770000000e+00 0.0000e+00 1.0000e+00
       22  1    3    3    0    0 +1.6380360497e-03 -2.0677858444e-03 -1.0019532960e-02 1.0360981669e-02 0.0000000000e+00 0.0000e+00 -1.0000e+00
<mgrwt>
<rscale>  2 0.12500000E+03</rscale>
<asrwt>0</asrwt>
<pdfrwt beam="1">  1       21 0.15706335E-02 0.12500000E+03</pdfrwt>
<pdfrwt beam="2">  1       21 0.53785764E-01 0.12500000E+03</pdfrwt>
<totfact> 0.55891331E+06</totfact>
</mgrwt>
</event>
<event>
 6      0 +4.1053447e-01 1.25000000e+02 7.54677100e-03 1.12640300e-01
       21 -1    0    0  502  501 +0.0000000000e+00 +0.0000000000e+00 +2.5976074579e+01 2.5976074579e+01 0.0000000000e+00 0.0000e+00 -1.0000e+00
       21 -1    0    0  501  502 -0.0000000000e+00 -0.0000000000e+00 -1.5037876443e+02 1.5037876443e+02 0.0000000000e+00 0.0000e+00 -1.0000e+00
       25  2    1    2    0    0 +0.0000000000e+00 +0.0000000000e+00 -1.2440268985e+02 1.7635483901e+02 1.2500000000e+02 0.0000e+00 0.0000e+00
      -15  1    3    3    0    0 -1.9955599451e+01 -2.5799385317e+01 +1.2974756507e+01 3.5147350791e+01 1.7770000000e+00 0.0000e+00 1.0000e+00
       15  1    3    3    0    0 +1.9955599455e+01 +2.5799385312e+01 -1.3737744634e+02 1.4120748820e+02 1.7770000000e+00 0.0000e+00 1.0000e+00
       22  1    3    3    0    0 -3.6005889284e-09 +5.4415203094e-09 -1.6325262848e-08 1.7580915533e-08 0.0000000000e+00 0.0000e+00 -1.0000e+00
<mgrwt>
<rscale>  2 0.12500000E+03</rscale>
<asrwt>0</asrwt>
<pdfrwt beam="1">  1       21 0.38200109E-02 0.12500000E+03</pdfrwt>
<pdfrwt beam="2">  1       21 0.22114525E-01 0.12500000E+03</pdfrwt>
<totfact> 0.80367731E+06</totfact>
</mgrwt>
</event>
<event>
 6      0 +4.1053447e-01 1.25000000e+02 7.54677100e-03 1.12640300e-01
       21 -1    0    0  502  501 +0.0000000000e+00 +0.0000000000e+00 +5.7082219737e+01 5.7082219737e+01 0.0000000000e+00 0.0000e+00 1.0000e+00
       21 -1    0    0  501  502 -0.0000000000e+00 -0.0000000000e+00 -6.8431991923e+01 6.8431991923e+01 0.0000000000e+00 0.0000e+00 1.0000e+00
       25  2    1    2    0    0 +0.0000000000e+00 +0.0000000000e+00 -1.1349772186e+01 1.2551421166e+02 1.2500000000e+02 0.0000e+00 0.0000e+00
      -15  1    3    3    0    0 +2.4703579711e+01 +1.5520256417e+01 -6.1146574826e+01 6.7773199362e+01 1.7770000000e+00 0.0000e+00 -1.0000e+00
       15  1    3    3    0    0 -2.4703579703e+01 -1.5520256446e+01 +4.9796802675e+01 5.7741012252e+01 1.7770000000e+00 0.0000e+00 -1.0000e+00
       22  1    3    3    0    0 -7.9985787546e-09 +2.9004666918e-08 -3.5039858303e-08 4.6184842049e-08 0.0000000000e+00 0.0000e+00 1.0000e+00
<mgrwt>
<rscale>  2 0.12500000E+03</rscale>
<asrwt>0</asrwt>
<pdfrwt beam="1">  1       21 0.83944441E-02 0.12500000E+03</pdfrwt>
<pdfrwt beam="2">  1       21 0.10063528E-01 0.12500000E+03</pdfrwt>
<totfact> 0.88900784E+06</totfact>
</mgrwt>
</event>
<event>
 6      0 +4.1053447e-01 1.25000000e+02 7.54677100e-03 1.12640300e-01
       21 -1    0    0  502  501 +0.0000000000e+00 +0.0000000000e+00 +1.3236712389e+01 1.3236712389e+01 0.0000000000e+00 0.0000e+00 -1.0000e+00
       21 -1    0    0  501  502 -0.0000000000e+00 -0.0000000000e+00 -2.9510726571e+02 2.9510726571e+02 0.0000000000e+00 0.0000e+00 -1.0000e+00
       25  2    1    2    0    0 +0.0000000000e+00 +0.0000000000e+00 -2.8187055332e+02 3.0834397810e+02 1.2500000000e+02 0.0000e+00 0.0000e+00
      -15  1    3    3    0    0 -4.5642999582e+01 -2.1036078472e+01 -4.9389458178e+01 7.0486000854e+01 1.7770000000e+00 0.0000e+00 -1.0000e+00
       15  1    3    3    0    0 +4.5642999571e+01 +2.1036078473e+01 -2.3248109512e+02 2.3785797722e+02 1.7770000000e+00 0.0000e+00 -1.0000e+00
       22  1    3    3    0    0 +1.1726599592e-08 -8.3471863674e-10 -4.8516920580e-09 1.2718050519e-08 0.0000000000e+00 0.0000e+00 1.0000e+00
<mgrwt>
<rscale>  2 0.12500000E+03</rscale>
<asrwt>0</asrwt>
<pdfrwt beam="1">  1       21 0.19465756E-02 0.12500000E+03</pdfrwt>
<pdfrwt beam="2">  1       21 0.43398123E-01 0.12500000E+03</pdfrwt>
<totfact> 0.63000920E+06</totfact>
</mgrwt>
</event>
<event>
 6      0 +4.1053447e-01 1.25000000e+02 7.54677100e-03 1.12640300e-01
       21 -1    0    0  502  501 +0.0000000000e+00 +0.0000000000e+00 +8.6865937373e+00 8.6865937373e+00 0.0000000000e+00 0.0000e+00 -1.0000e+00
       21 -1    0    0  501  502 -0.0000000000e+00 -0.0000000000e+00 -4.4968719824e+02 4.4968719824e+02 0.0000000000e+00 0.0000e+00 -1.0000e+00
       25  2    1    2    0    0 +0.0000000000e+00 +0.0000000000e+00 -4.4100060451e+02 4.5837379198e+02 1.2500000000e+02 0.0000e+00 0.0000e+00
      -15  1    3    3    0    0 +1.3008973709e+00 +3.9478363346e+01 -4.3009589566e+01 5.8422735558e+01 1.7770000000e+00 0.0000e+00 1.0000e+00
       15  1    3    3    0    0 -1.3043565694e+00 -3.9477547925e+01 -3.9782969296e+02 3.9978969530e+02 1.7770000000e+00 0.0000e+00 1.0000e+00
       22  1    3    3    0    0 +3.4591985340e-03 -8.1542048395e-04 -1.6132204207e-01 1.6136118562e-01 0.0000000000e+00 0.0000e+00 1.0000e+00
<mgrwt>
<rscale>  2 0.12500000E+03</rscale>
<asrwt>0</asrwt>
<pdfrwt beam="1">  1       21 0.12774404E-02 0.12500000E+03</pdfrwt>
<pdfrwt beam="2">  1       21 0.66130462E-01 0.12500000E+03</pdfrwt>
<totfact> 0.48584841E+06</totfact>
</mgrwt>
</event>
<event>
 6      0 +4.1053447e-01 1.25000000e+02 7.54677100e-03 1.12640300e-01
       21 -1    0    0  502  501 +0.0000000000e+00 +0.0000000000e+00 +2.9310281251e+02 2.9310281251e+02 0.0000000000e+00 0.0000e+00 -1.0000e+00
       21 -1    0    0  501  502 -0.0000000000e+00 -0.0000000000e+00 -1.3327234790e+01 1.3327234790e+01 0.0000000000e+00 0.0000e+00 -1.0000e+00
       25  2    1    2    0    0 +0.0000000000e+00 +0.0000000000e+00 +2.7977557772e+02 3.0643004730e+02 1.2500000000e+02 0.0000e+00 0.0000e+00
      -15  1    3    3    0    0 -4.8767768587e+01 +3.8929209619e+01 +1.3265286943e+02 1.4660736718e+02 1.7770000000e+00 0.0000e+00 -1.0000e+00
       15  1    3    3    0    0 +4.8259857798e+01 -3.8560743406e+01 +1.4534845054e+02 1.5794073132e+02 1.7770000000e+00 0.0000e+00 -1.0000e+00
       22  1    3    3    0    0 +5.0791078928e-01 -3.6846621362e-01 +1.7742577542e+00 1.8819488034e+00 0.0000000000e+00 0.0000e+00 -1.0000e+00
<mgrwt>
<rscale>  2 0.12500000E+03</rscale>
<asrwt>0</asrwt>
<pdfrwt beam="1">  1       21 0.43103351E-01 0.12500000E+03</pdfrwt>
<pdfrwt beam="2">  1       21 0.19598876E-02 0.12500000E+03</pdfrwt>
<totfact> 0.63216957E+06</totfact>
</mgrwt>
</event>
<event>
 6      0 +4.1053447e-01 1.25000000e+02 7.54677100e-03 1.12640300e-01
       21 -1    0    0  502  501 +0.0000000000e+00 +0.0000000000e+00 +1.6311840620e+01 1.6311840620e+01 0.0000000000e+00 0.0000e+00 -1.0000e+00
       21 -1    0    0  501  502 -0.0000000000e+00 -0.0000000000e+00 -2.3947328147e+02 2.3947328147e+02 0.0000000000e+00 0.0000e+00 -1.0000e+00
       25  2    1    2    0    0 +0.0000000000e+00 +0.0000000000e+00 -2.2316144085e+02 2.5578512209e+02 1.2500000000e+02 0.0000e+00 0.0000e+00
      -15  1    3    3    0    0 +1.2737162917e+01 -1.5271933695e+01 +9.6106913817e+00 2.2158303088e+01 1.7770000000e+00 0.0000e+00 -1.0000e+00
       15  1    3    3    0    0 -1.2737162852e+01 +1.5271933789e+01 -2.3277213137e+02 2.3362681814e+02 1.7770000000e+00 0.0000e+00 -1.0000e+00
       22  1    3    3    0    0 -6.5325887779e-08 -9.4184018285e-08 -8.5722710560e-07 8.6485629529e-07 0.0000000000e+00 0.0000e+00 -1.0000e+00
<mgrwt>
<rscale>  2 0.12500000E+03</rscale>
<asrwt>0</asrwt>
<pdfrwt beam="1">  1       21 0.23988002E-02 0.12500000E+03</pdfrwt>
<pdfrwt beam="2">  1       21 0.35216657E-01 0.12500000E+03</pdfrwt>
<totfact> 0.69265236E+06</totfact>
</mgrwt>
</event>
<event>
 6      0 +4.1053447e-01 1.25000000e+02 7.54677100e-03 1.12640300e-01
       21 -1    0    0  502  501 +0.0000000000e+00 +0.0000000000e+00 +2.0861036909e+01 2.0861036909e+01 0.0000000000e+00 0.0000e+00 1.0000e+00
       21 -1    0    0  501  502 -0.0000000000e+00 -0.0000000000e+00 -1.8725099893e+02 1.8725099893e+02 0.0000000000e+00 0.0000e+00 1.0000e+00
       25  2    1    2    0    0 +0.0000000000e+00 +0.0000000000e+00 -1.6638996202e+02 2.0811203584e+02 1.2500000000e+02 0.0000e+00 0.0000e+00
      -15  1    3    3    0    0 +3.9591120664e+01 -3.8357876726e+01 -3.4248482283e+01 6.4922259743e+01 1.7770000000e+00 0.0000e+00 1.0000e+00
       15  1    3    3    0    0 -3.9591120809e+01 +3.8357876816e+01 -1.3214147952e+02 1.4318977582e+02 1.7770000000e+00 0.0000e+00 1.0000e+00
       22  1    3    3    0    0 +1.4478180170e-07 -8.9279469503e-08 -2.1284604137e-07 2.7246289858e-07 0.0000000000e+00 0.0000e+00 -1.0000e+00
<mgrwt>
<rscale>  2 0.12500000E+03</rscale>
<asrwt>0</asrwt>
<pdfrwt beam="1">  1       21 0.30677998E-02 0.12500000E+03</pdfrwt>
<pdfrwt beam="2">  1       21 0.27536909E-01 0.12500000E+03</pdfrwt>
<totfact> 0.75651576E+06</totfact>
</mgrwt>
</event>
<event>
 6      0 +4.1053447e-01 1.25000000e+02 7.54677100e-03 1.12640300e-01
       21 -1    0    0  502  501 +0.0000000000e+00 +0.0000000000e+00 +5.3684056004e+01 5.3684056004e+01 0.0000000000e+00 0.0000e+00 -1.0000e+00
       21 -1    0    0  501  502 -0.0000000000e+00 -0.0000000000e+00 -7.2763689832e+01 7.2763689832e+01 0.0000000000e+00 0.0000e+00 -1.0000e+00
       25  2    1    2    0    0 +0.0000000000e+00 +0.0000000000e+00 -1.9079633828e+01 1.2644774584e+02 1.2500000000e+02 0.0000e+00 0.0000e+00
      -15  1    3    3    0    0 +5.8135522555e+00 -6.0741649339e+01 +4.0224305267e+00 6.1177471594e+01 1.7770000000e+00 0.0000e+00 -1.0000e+00
       15  1    3    3    0    0 -5.8135555974e+00 +6.0741592836e+01 -2.3102029620e+01 6.5270207833e+01 1.7770000000e+00 0.0000e+00 -1.0000e+00
       22  1    3    3    0    0 +3.3419043222e-06 +5.6502933441e-05 -3.4733679766e-05 6.6409173478e-05 0.0000000000e+00 0.0000e+00 1.0000e+00
<mgrwt>
<rscale>  2 0.12500000E+03</rscale>
<asrwt>0</asrwt>
<pdfrwt beam="1">  1       21 0.78947142E-02 0.12500000E+03</pdfrwt>
<pdfrwt beam="2">  1       21 0.10700543E-01 0.12500000E+03</pdfrwt>
<totfact> 0.88731402E+06</totfact>
</mgrwt>
</event>
<event>
 6      0 +4.1053447e-01 1.25000000e+02 7.54677100e-03 1.12640300e-01
       21 -1    0    0  502  501 +0.0000000000e+00 +0.0000000000e+00 +9.4845211400e+00 9.4845211400e+00 0.0000000000e+00 0.0000e+00 -1.0000e+00
       21 -1    0    0  501  502 -0.0000000000e+00 -0.0000000000e+00 -4.1185526843e+02 4.1185526843e+02 0.0000000000e+00 0.0000e+00 -1.0000e+00
       25  2    1    2    0    0 +0.0000000000e+00 +0.0000000000e+00 -4.0237074729e+02 4.2133978957e+02 1.2500000000e+02 0.0000e+00 0.0000e+00
      -15  1    3    3    0    0 -4.5802218861e+00 +5.5814152991e+01 -1.0784056337e+02 1.2152753985e+02 1.7770000000e+00 0.0000e+00 -1.0000e+00
       15  1    3    3    0    0 +4.5802218920e+00 -5.5814152790e+01 -2.9453018233e+02 2.9981224811e+02 1.7770000000e+00 0.0000e+00 -1.0000e+00
       22  1    3    3    0    0 -5.9288054327e-09 -2.0116319240e-07 -1.5969360960e-06 1.6095672324e-06 0.0000000000e+00 0.0000e+00 1.0000e+00
<mgrwt>
<rscale>  2 0.12500000E+03</rscale>
<asrwt>0</asrwt>
<pdfrwt beam="1">  1       21 0.13947824E-02 0.12500000E+03</pdfrwt>
<pdfrwt beam="2">  1       21 0.60566956E-01 0.12500000E+03</pdfrwt>
<totfact> 0.51729597E+06</totfact>
</mgrwt>
</event>
<event>
 6      0 +4.1053447e-01 1.25000000e+02 7.54677100e-03 1.12640300e-01
       21 -1    0    0  502  501 +0.0000000000e+00 +0.0000000000e+00 +8.2863543528e+02 8.2863543528e+02 0.0000000000e+00 0.0000e+00 -1.0000e+00
       21 -1    0    0  501  502 -0.0000000000e+00 -0.0000000000e+00 -4.7140754953e+00 4.7140754953e+00 0.0000000000e+00 0.0000e+00 -1.0000e+00
       25  2    1    2    0    0 +0.0000000000e+00 +0.0000000000e+00 +8.2392135979e+02 8.3334951078e+02 1.2500000000e+02 0.0000e+00 0.0000e+00
      -15  1    3    3    0    0 -4.4554356410e+01 -1.4457459568e+01 +4.5428681626e+02 4.5669878253e+02 1.7770000000e+00 0.0000e+00 1.0000e+00
       15  1    3    3    0    0 +3.4097664594e+01 +3.4815280458e+01 +2.2567591114e+02 2.3088423308e+02 1.7770000000e+00 0.0000e+00 1.0000e+00
       22  1    3    3    0    0 +1.0456691816e+01 -2.0357820890e+01 +1.4395863242e+02 1.4576649520e+02 0.0000000000e+00 0.0000e+00 1.0000e+00
<mgrwt>
<rscale>  2 0.12500000E+03</rscale>
<asrwt>0</asrwt>
<pdfrwt beam="1">  1       21 0.12185805E+00 0.12500000E+03</pdfrwt>
<pdfrwt beam="2">  1       21 0.69324697E-03 0.12500000E+03</pdfrwt>
<totfact> 0.26925251E+06</totfact>
</mgrwt>
</event>
<event>
 6      0 +4.1053447e-01 1.25000000e+02 7.54677100e-03 1.12640300e-01
       21 -1    0    0  502  501 +0.0000000000e+00 +0.0000000000e+00 +4.7963416627e+01 4.7963416627e+01 0.0000000000e+00 0.0000e+00 1.0000e+00
       21 -1    0    0  501  502 -0.0000000000e+00 -0.0000000000e+00 -8.1442279861e+01 8.1442279861e+01 0.0000000000e+00 0.0000e+00 1.0000e+00
       25  2    1    2    0    0 +0.0000000000e+00 +0.0000000000e+00 -3.3478863234e+01 1.2940569649e+02 1.2500000000e+02 0.0000e+00 0.0000e+00
      -15  1    3    3    0    0 +8.4573298530e+00 -3.1553109294e+01 +3.8032904679e+01 5.0167566232e+01 1.7770000000e+00 0.0000e+00 -1.0000e+00
       15  1    3    3    0    0 -8.2036859824e+00 +3.2160567570e+01 -7.1030994003e+01 7.8422971176e+01 1.7770000000e+00 0.0000e+00 -1.0000e+00
       22  1    3    3    0    0 -2.5364387064e-01 -6.0745827645e-01 -4.8077391026e-01 8.1515907867e-01 0.0000000000e+00 0.0000e+00 1.0000e+00
<mgrwt>
<rscale>  2 0.12500000E+03</rscale>
<asrwt>0</asrwt>
<pdfrwt beam="1">  1       21 0.70534437E-02 0.12500000E+03</pdfrwt>
<pdfrwt beam="2">  1       21 0.11976806E-01 0.12500000E+03</pdfrwt>
<totfact> 0.88206048E+06</totfact>
</mgrwt>
</event>
<event>
 6      0 +4.1053447e-01 1.25000000e+02 7.54677100e-03 1.12640300e-01
       21 -1    0    0  502  501 +0.0000000000e+00 +0.0000000000e+00 +2.7189424294e+01 2.7189424294e+01 0.0000000000e+00 0.0000e+00 1.0000e+00
       21 -1    0    0  501  502 -0.0000000000e+00 -0.0000000000e+00 -1.4366799230e+02 1.4366799230e+02 0.0000000000e+00 0.0000e+00 1.0000e+00
       25  2    1    2    0    0 +0.0000000000e+00 +0.0000000000e+00 -1.1647856800e+02 1.7085741659e+02 1.2500000000e+02 0.0000e+00 0.0000e+00
      -15  1    3    3    0    0 -4.5957068277e+01 +3.8922327087e+00 -6.3803045791e-01 4.6160225432e+01 1.7770000000e+00 0.0000e+00 -1.0000e+00
       15  1    3    3    0    0 +4.5957068338e+01 -3.8922326832e+00 -1.1584053750e+02 1.2469719108e+02 1.7770000000e+00 0.0000e+00 -1.0000e+00
       22  1    3    3    0    0 -6.1376057926e-08 -2.5522198072e-08 -4.1047720556e-08 7.8123738030e-08 0.0000000000e+00 0.0000e+00 1.0000e+00
<mgrwt>
<rscale>  2 0.12500000E+03</rscale>
<asrwt>0</asrwt>
<pdfrwt beam="1">  1       21 0.39984448E-02 0.12500000E+03</pdfrwt>
<pdfrwt beam="2">  1       21 0.21127646E-01 0.12500000E+03</pdfrwt>
<totfact> 0.81228331E+06</totfact>
</mgrwt>
</event>
<event>
 6      0 +4.1053447e-01 1.25000000e+02 7.54677100e-03 1.12640300e-01
       21 -1    0    0  502  501 +0.0000000000e+00 +0.0000000000e+00 +3.4964767083e+01 3.4964767083e+01 0.0000000000e+00 0.0000e+00 -1.0000e+00
       21 -1    0    0  501  502 -0.0000000000e+00 -0.0000000000e+00 -1.1171960593e+02 1.1171960593e+02 0.0000000000e+00 0.0000e+00 -1.0000e+00
       25  2    1    2    0    0 +0.0000000000e+00 +0.0000000000e+00 -7.6754838849e+01 1.4668437301e+02 1.2500000000e+02 0.0000e+00 0.0000e+00
      -15  1    3    3    0    0 +5.7999190365e+01 +9.6738334575e+00 -6.3148670568e+01 8.6304121920e+01 1.7770000000e+00 0.0000e+00 -1.0000e+00
       15  1    3    3    0    0 -5.7999190453e+01 -9.6738335443e+00 -1.3606168003e+01 6.0380250789e+01 1.7770000000e+00 0.0000e+00 -1.0000e+00
       22  1    3    3    0    0 +8.7837459646e-08 +8.6798052839e-08 -2.8177724022e-07 3.0764871916e-07 0.0000000000e+00 0.0000e+00 -1.0000e+00
<mgrwt>
<rscale>  2 0.12500000E+03</rscale>
<asrwt>0</asrwt>
<pdfrwt beam="1">  1       21 0.51418776E-02 0.12500000E+03</pdfrwt>
<pdfrwt beam="2">  1       21 0.16429354E-01 0.12500000E+03</pdfrwt>
<totfact> 0.85185906E+06</totfact>
</mgrwt>
</event>
<event>
 6      0 +4.1053447e-01 1.25000000e+02 7.54677100e-03 1.12640300e-01
       21 -1    0    0  502  501 +0.0000000000e+00 +0.0000000000e+00 +2.9861637549e+01 2.9861637549e+01 0.0000000000e+00 0.0000e+00 1.0000e+00
       21 -1    0    0  501  502 -0.0000000000e+00 -0.0000000000e+00 -1.3081164734e+02 1.3081164734e+02 0.0000000000e+00 0.0000e+00 1.0000e+00
       25  2    1    2    0    0 +0.0000000000e+00 +0.0000000000e+00 -1.0095000979e+02 1.6067328489e+02 1.2500000000e+02 0.0000e+00 0.0000e+00
      -15  1    3    3    0    0 +3.5763764025e+01 +5.0553941335e+01 -6.1052657060e+01 8.6978919658e+01 1.7770000000e+00 0.0000e+00 -1.0000e+00
       15  1    3    3    0    0 -3.5726903520e+01 -5.0503309322e+01 -3.9809020723e+01 7.3586083926e+01 1.7770000000e+00 0.0000e+00 -1.0000e+00
       22  1    3    3    0    0 -3.6860505286e-02 -5.0632012878e-02 -8.8332004532e-02 1.0828130311e-01 0.0000000000e+00 0.0000e+00 -1.0000e+00
<mgrwt>
<rscale>  2 0.12500000E+03</rscale>
<asrwt>0</asrwt>
<pdfrwt beam="1">  1       21 0.43914173E-02 0.12500000E+03</pdfrwt>
<pdfrwt beam="2">  1       21 0.19237007E-01 0.12500000E+03</pdfrwt>
<totfact> 0.82869069E+06</totfact>
</mgrwt>
</event>
<event>
 6      0 +4.1053447e-01 1.25000000e+02 7.54677100e-03 1.12640300e-01
       21 -1    0    0  502  501 +0.0000000000e+00 +0.0000000000e+00 +1.0627463760e+03 1.0627463760e+03 0.0000000000e+00 0.0000e+00 -1.0000e+00
       21 -1    0    0  501  502 -0.0000000000e+00 -0.0000000000e+00 -3.6756182739e+00 3.6756182739e+00 0.0000000000e+00 0.0000e+00 -1.0000e+00
       25  2    1    2    0    0 +0.0000000000e+00 +0.0000000000e+00 +1.0590707577e+03 1.0664219942e+03 1.2500000000e+02 0.0000e+00 0.0000e+00
      -15  1    3    3    0    0 +6.1668485744e+01 -2.7931472945e+00 +4.7384057889e+02 4.7784815134e+02 1.7770000000e+00 0.0000e+00 -1.0000e+00
       15  1    3    3    0    0 -6.0574787109e+01 +4.2075387724e+00 +5.6150853743e+02 5.6478491795e+02 1.7770000000e+00 0.0000e+00 -1.0000e+00
       22  1    3    3    0    0 -1.0936986346e+00 -1.4143914780e+00 +2.3721644833e+01 2.3788928382e+01 0.0000000000e+00 0.0000e+00 -1.0000e+00
<mgrwt>
<rscale>  2 0.12500000E+03</rscale>
<asrwt>0</asrwt>
<pdfrwt beam="1">  1       21 0.15628602E+00 0.12500000E+03</pdfrwt>
<pdfrwt beam="2">  1       21 0.54053284E-03 0.12500000E+03</pdfrwt>
<totfact> 0.19290898E+06</totfact>
</mgrwt>
</event>
<event>
 6      0 +4.1053447e-01 1.25000000e+02 7.54677100e-03 1.12640300e-01
       21 -1    0    0  502  501 +0.0000000000e+00 +0.0000000000e+00 +3.8857488161e+01 3.8857488161e+01 0.0000000000e+00 0.0000e+00 1.0000e+00
       21 -1    0    0  501  502 -0.0000000000e+00 -0.0000000000e+00 -1.0052759931e+02 1.0052759931e+02 0.0000000000e+00 0.0000e+00 1.0000e+00
       25  2    1    2    0    0 +0.0000000000e+00 +0.0000000000e+00 -6.1670111147e+01 1.3938508747e+02 1.2500000000e+02 0.0000e+00 0.0000e+00
      -15  1    3    3    0    0 -3.0747528440e+01 -5.3879068136e+01 -2.2587372702e+01 6.6043255696e+01 1.7770000000e+00 0.0000e+00 1.0000e+00
       15  1    3    3    0    0 +3.0730707512e+01 +5.3849692094e+01 -3.9066743028e+01 7.3304391837e+01 1.7770000000e+00 0.0000e+00 1.0000e+00
       22  1    3    3    0    0 +1.6820928315e-02 +2.9376041983e-02 -1.5995416050e-02 3.7439935985e-02 0.0000000000e+00 0.0000e+00 1.0000e+00
<mgrwt>
<rscale>  2 0.12500000E+03</rscale>
<asrwt>0</asrwt>
<pdfrwt beam="1">  1       21 0.57143366E-02 0.12500000E+03</pdfrwt>
<pdfrwt beam="2">  1       21 0.14783470E-01 0.12500000E+03</pdfrwt>
<totfact> 0.86446553E+06</totfact>
</mgrwt>
</event>
<event>
 6      0 +4.1053447e-01 1.25000000e+02 7.54677100e-03 1.12640300e-01
       21 -1    0    0  502  501 +0.0000000000e+00 +0.0000000000e+00 +3.6634315011e+01 3.6634315011e+01 0.0000000000e+00 0.0000e+00 -1.0000e+00
       21 -1    0    0  501  502 -0.0000000000e+00 -0.0000000000e+00 -1.0662817085e+02 1.0662817085e+02 0.0000000000e+00 0.0000e+00 -1.0000e+00
       25  2    1    2    0    0 +0.0000000000e+00 +0.0000000000e+00 -6.9993855840e+01 1.4326248586e+02 1.2500000000e+02 0.0000e+00 0.0000e+00
      -15  1    3    3    0    0 -5.4955120606e+01 +2.5685671515e+01 -5.2119985755e+01 7.9996685219e+01 1.7770000000e+00 0.0000e+00 -1.0000e+00
       15  1    3    3    0    0 +5.4955514269e+01 -2.5685833473e+01 -1.7873503429e+01 6.3265238826e+01 1.7770000000e+00 0.0000e+00 -1.0000e+00
       22  1    3    3    0    0 -3.9366374772e-04 +1.6195816539e-04 -3.6665797133e-04 5.6181817481e-04 0.0000000000e+00 0.0000e+00 -1.0000e+00
<mgrwt>
<rscale>  2 0.12500000E+03</rscale>
<asrwt>0</asrwt>
<pdfrwt beam="1">  1       21 0.53873994E-02 0.12500000E+03</pdfrwt>
<pdfrwt beam="2">  1       21 0.15680613E-01 0.12500000E+03</pdfrwt>
<totfact> 0.85774564E+06</totfact>
</mgrwt>
</event>
<event>
 6      0 +4.1053447e-01 1.25000000e+02 7.54677100e-03 1.12640300e-01
       21 -1    0    0  502  501 +0.0000000000e+00 +0.0000000000e+00 +1.4965203303e+02 1.4965203303e+02 0.0000000000e+00 0.0000e+00 1.0000e+00
       21 -1    0    0  501  502 -0.0000000000e+00 -0.0000000000e+00 -2.6102218064e+01 2.6102218064e+01 0.0000000000e+00 0.0000e+00 1.0000e+00
       25  2    1    2    0    0 +0.0000000000e+00 +0.0000000000e+00 +1.2354981497e+02 1.7575425110e+02 1.2500000000e+02 0.0000e+00 0.0000e+00
      -15  1    3    3    0    0 -3.7485338549e+01 +4.9274895148e+01 +5.0017371258e+01 7.9611940401e+01 1.7770000000e+00 0.0000e+00 1.0000e+00
       15  1    3    3    0    0 +3.7485338516e+01 -4.9274895131e+01 +7.3532443634e+01 9.6142310611e+01 1.7770000000e+00 0.0000e+00 1.0000e+00
       22  1    3    3    0    0 +3.2893979188e-08 -1.7201460337e-08 +7.5863463121e-08 8.4458091035e-08 0.0000000000e+00 0.0000e+00 1.0000e+00
<mgrwt>
<rscale>  2 0.12500000E+03</rscale>
<asrwt>0</asrwt>
<pdfrwt beam="1">  1       21 0.22007652E-01 0.12500000E+03</pdfrwt>
<pdfrwt beam="2">  1       21 0.38385615E-02 0.12500000E+03</pdfrwt>
<totfact> 0.80460903E+06</totfact>
</mgrwt>
</event>
<event>
 6      0 +4.1053447e-01 1.25000000e+02 7.54677100e-03 1.12640300e-01
       21 -1    0    0  502  501 +0.0000000000e+00 +0.0000000000e+00 +2.3103936373e+02 2.3103936373e+02 0.0000000000e+00 0.0000e+00 1.0000e+00
       21 -1    0    0  501  502 -0.0000000000e+00 -0.0000000000e+00 -1.6907292060e+01 1.6907292060e+01 0.0000000000e+00 0.0000e+00 1.0000e+00
       25  2    1    2    0    0 +0.0000000000e+00 +0.0000000000e+00 +2.1413207167e+02 2.4794665579e+02 1.2500000000e+02 0.0000e+00 0.0000e+00
      -15  1    3    3    0    0 +1.0710563097e+01 +3.3335580875e+01 +9.9920357683e+00 3.6455117911e+01 1.7770000000e+00 0.0000e+00 1.0000e+00
       15  1    3    3    0    0 -1.0039323799e+01 -3.7159568719e+01 +2.0399924767e+02 2.0760653253e+02 1.7770000000e+00 0.0000e+00 1.0000e+00
       22  1    3    3    0    0 -6.7123929750e-01 +3.8239878442e+00 +1.4078822992e-01 3.8850053479e+00 0.0000000000e+00 0.0000e+00 1.0000e+00
<mgrwt>
<rscale>  2 0.12500000E+03</rscale>
<asrwt>0</asrwt>
<pdfrwt beam="1">  1       21 0.33976375E-01 0.12500000E+03</pdfrwt>
<pdfrwt beam="2">  1       21 0.24863666E-02 0.12500000E+03</pdfrwt>
<totfact> 0.70267854E+06</totfact>
</mgrwt>
</event>
<event>
 6      0 +4.1053447e-01 1.25000000e+02 7.54677100e-03 1.12640300e-01
       21 -1    0    0  502  501 +0.0000000000e+00 +0.0000000000e+00 +9.0984259742e+01 9.0984259742e+01 0.0000000000e+00 0.0000e+00 -1.0000e+00
       21 -1    0    0  501  502 -0.0000000000e+00 -0.0000000000e+00 -4.2933250334e+01 4.2933250334e+01 0.0000000000e+00 0.0000e+00 -1.0000e+00
       25  2    1    2    0    0 +0.0000000000e+00 +0.0000000000e+00 +4.8051009408e+01 1.3391751008e+02 1.2500000000e+02 0.0000e+00 0.0000e+00
      -15  1    3    3    0    0 -5.4643536803e+01 +2.3468501113e+01 +4.4532799120e+01 7.4316987193e+01 1.7770000000e+00 0.0000e+00 -1.0000e+00
       15  1    3    3    0    0 +5.4643521040e+01 -2.3468498859e+01 +3.5182136955e+00 5.9600506600e+01 1.7770000000e+00 0.0000e+00 -1.0000e+00
       22  1    3    3    0    0 +1.5763163804e-05 -2.2537679136e-06 -3.4090159819e-06 1.6284292827e-05 0.0000000000e+00 0.0000e+00 1.0000e+00
<mgrwt>
<rscale>  2 0.12500000E+03</rscale>
<asrwt>0</asrwt>
<pdfrwt beam="1">  1       21 0.13380038E-01 0.12500000E+03</pdfrwt>
<pdfrwt beam="2">  1       21 0.63137133E-02 0.12500000E+03</pdfrwt>
<totfact> 0.87395885E+06</totfact>
</mgrwt>
</event>
<event>
 6      0 +4.1053447e-01 1.25000000e+02 7.54677100e-03 1.12640300e-01
       21 -1    0    0  502  501 +0.0000000000e+00 +0.0000000000e+00 +1.3609216499e+01 1.3609216499e+01 0.0000000000e+00 0.0000e+00 -1.0000e+00
       21 -1    0    0  501  502 -0.0000000000e+00 -0.0000000000e+00 -2.8702974932e+02 2.8702974932e+02 0.0000000000e+00 0.0000e+00 -1.0000e+00
       25  2    1    2    0    0 +0.0000000000e+00 +0.0000000000e+00 -2.7342053282e+02 3.0063896582e+02 1.2500000000e+02 0.0000e+00 0.0000e+00
      -15  1    3    3    0    0 -5.5387968849e+01 +2.2424138867e+01 -9.2859125059e+01 1.1043841693e+02 1.7770000000e+00 0.0000e+00 1.0000e+00
       15  1    3    3    0    0 +5.5387968824e+01 -2.2424138860e+01 -1.8056140770e+02 1.9020054882e+02 1.7770000000e+00 0.0000e+00 1.0000e+00
       22  1    3    3    0    0 +2.5026823683e-08 -6.3780390506e-09 -4.9265808201e-08 5.5625004661e-08 0.0000000000e+00 0.0000e+00 1.0000e+00
<mgrwt>
<rscale>  2 0.12500000E+03</rscale>
<asrwt>0</asrwt>
<pdfrwt beam="1">  1       21 0.20013556E-02 0.12500000E+03</pdfrwt>
<pdfrwt beam="2">  1       21 0.42210253E-01 0.12500000E+03</pdfrwt>
<totfact> 0.63876753E+06</totfact>
</mgrwt>
</event>
<event>
 6      0 +4.1053447e-01 1.25000000e+02 7.54677100e-03 1.12640300e-01
       21 -1    0    0  502  501 +0.0000000000e+00 +0.0000000000e+00 +2.1064725659e+02 2.1064725659e+02 0.0000000000e+00 0.0000e+00 1.0000e+00
       21 -1    0    0  501  502 -0.0000000000e+00 -0.0000000000e+00 -1.8544034531e+01 1.8544034531e+01 0.0000000000e+00 0.0000e+00 1.0000e+00
       25  2    1    2    0    0 +0.0000000000e+00 +0.0000000000e+00 +1.9210322206e+02 2.2919129112e+02 1.2500000000e+02 0.0000e+00 0.0000e+00
      -15  1    3    3    0    0 -1.1525316208e+01 -2.1011397560e+01 -9.7349880442e+00 2.5927581113e+01 1.7770000000e+00 0.0000e+00 -1.0000e+00
       15  1    3    3    0    0 +1.1525310372e+01 +2.1011391700e+01 +2.0183821081e+02 2.0326370171e+02 1.7770000000e+00 0.0000e+00 -1.0000e+00
       22  1    3    3    0    0 +5.8360384972e-06 +5.8600275800e-06 -7.0462056308e-07 8.3003469047e-06 0.0000000000e+00 0.0000e+00 1.0000e+00
<mgrwt>
<rscale>  2 0.12500000E+03</rscale>
<asrwt>0</asrwt>
<pdfrwt beam="1">  1       21 0.30977536E-01 0.12500000E+03</pdfrwt>
<pdfrwt beam="2">  1       21 0.27270640E-02 0.12500000E+03</pdfrwt>
<totfact> 0.72746078E+06</totfact>
</mgrwt>
</event>
<event>
 6      0 +4.1053447e-01 1.25000000e+02 7.54677100e-03 1.12640300e-01
       21 -1    0    0  502  501 +0.0000000000e+00 +0.0000000000e+00 +9.4356140197e+01 9.4356140197e+01 0.0000000000e+00 0.0000e+00 -1.0000e+00
       21 -1    0    0  501  502 -0.0000000000e+00 -0.0000000000e+00 -4.1399001611e+01 4.1399001611e+01 0.0000000000e+00 0.0000e+00 -1.0000e+00
       25  2    1    2    0    0 +0.0000000000e+00 +0.0000000000e+00 +5.2957138586e+01 1.3575514181e+02 1.2500000000e+02 0.0000e+00 0.0000e+00
      -15  1    3    3    0    0 -2.6418893120e+01 -2.7798133484e+01 -2.7084271847e+01 4.6983078331e+01 1.7770000000e+00 0.0000e+00 -1.0000e+00
       15  1    3    3    0    0 +2.6418893084e+01 +2.7798133434e+01 +8.0041410395e+01 8.8772063405e+01 1.7770000000e+00 0.0000e+00 -1.0000e+00
       22  1    3    3    0    0 +3.6186069674e-08 +4.9605726685e-08 +3.7276327277e-08 7.1830942730e-08 0.0000000000e+00 0.0000e+00 1.0000e+00
<mgrwt>
<rscale>  2 0.12500000E+03</rscale>
<asrwt>0</asrwt>
<pdfrwt beam="1">  1       21 0.13875903E-01 0.12500000E+03</pdfrwt>
<pdfrwt beam="2">  1       21 0.60880885E-02 0.12500000E+03</pdfrwt>
<totfact> 0.87074105E+06</totfact>
</mgrwt>
</event>
<event>
 6      0 +4.1053447e-01 1.25000000e+02 7.54677100e-03 1.12640300e-01
       21 -1    0    0  502  501 +0.0000000000e+00 +0.0000000000e+00 +3.9136663352e+01 3.9136663352e+01 0.0000000000e+00 0.0000e+00 -1.0000e+00
       21 -1    0    0  501  502 -0.0000000000e+00 -0.0000000000e+00 -9.9810501598e+01 9.9810501598e+01 0.0000000000e+00 0.0000e+00 -1.0000e+00
       25  2    1    2    0    0 +0.0000000000e+00 +0.0000000000e+00 -6.0673838247e+01 1.3894716495e+02 1.2500000000e+02 0.0000e+00 0.0000e+00
      -15  1    3    3    0    0 -5.5559781192e+01 -1.1703731844e+01 -5.9302332836e+01 8.2120588368e+01 1.7770000000e+00 0.0000e+00 -1.0000e+00
       15  1    3    3    0    0 +5.5561088093e+01 +1.1703836881e+01 -1.3701993922e+00 5.6824725985e+01 1.7770000000e+00 0.0000e+00 -1.0000e+00
       22  1    3    3    0    0 -1.3069015278e-03 -1.0503651697e-04 -1.3060179225e-03 1.8505964139e-03 0.0000000000e+00 0.0000e+00 -1.0000e+00
<mgrwt>
<rscale>  2 0.12500000E+03</rscale>
<asrwt>0</asrwt>
<pdfrwt beam="1">  1       21 0.57553918E-02 0.12500000E+03</pdfrwt>
<pdfrwt beam="2">  1       21 0.14678015E-01 0.12500000E+03</pdfrwt>
<totfact> 0.86522124E+06</totfact>
</mgrwt>
</event>
<event>
 6      0 +4.1053447e-01 1.25000000e+02 7.54677100e-03 1.12640300e-01
       21 -1    0    0  502  501 +0.0000000000e+00 +0.0000000000e+00 +2.4087364504e+02 2.4087364504e+02 0.0000000000e+00 0.0000e+00 1.0000e+00
       21 -1    0    0  501  502 -0.0000000000e+00 -0.0000000000e+00 -1.6217008712e+01 1.6217008712e+01 0.0000000000e+00 0.0000e+00 1.0000e+00
       25  2    1    2    0    0 +0.0000000000e+00 +0.0000000000e+00 +2.2465663632e+02 2.5709065375e+02 1.2500000000e+02 0.0000e+00 0.0000e+00
      -15  1    3    3    0    0 +9.2582274755e+00 +3.9765773787e+01 +2.0958252190e+02 2.1352991069e+02 1.7770000000e+00 0.0000e+00 1.0000e+00
       15  1    3    3    0    0 -9.2499356766e+00 -3.9737277424e+01 +1.5052834318e+01 4.3524224026e+01 1.7770000000e+00 0.0000e+00 1.0000e+00
       22  1    3    3    0    0 -8.2917988742e-03 -2.8496363341e-02 +2.1280075411e-02 3.6519012333e-02 0.0000000000e+00 0.0000e+00 1.0000e+00
<mgrwt>
<rscale>  2 0.12500000E+03</rscale>
<asrwt>0</asrwt>
<pdfrwt beam="1">  1       21 0.35422593E-01 0.12500000E+03</pdfrwt>
<pdfrwt beam="2">  1       21 0.23848544E-02 0.12500000E+03</pdfrwt>
<totfact> 0.69100273E+06</totfact>
</mgrwt>
</event>
<event>
 6      0 +4.1053447e-01 1.25000000e+02 7.54677100e-03 1.12640300e-01
       21 -1    0    0  502  501 +0.0000000000e+00 +0.0000000000e+00 +1.7094775786e+00 1.7094775786e+00 0.0000000000e+00 0.0000e+00 -1.0000e+00
       21 -1    0    0  501  502 -0.0000000000e+00 -0.0000000000e+00 -2.2850548314e+03 2.2850548314e+03 0.0000000000e+00 0.0000e+00 -1.0000e+00
       25  2    1    2    0    0 +0.0000000000e+00 +0.0000000000e+00 -2.2833453538e+03 2.2867643089e+03 1.2500000000e+02 0.0000e+00 0.0000e+00
      -15  1    3    3    0    0 -3.7128570657e+01 +4.6024366841e+01 -7.7297917971e+02 7.7523979716e+02 1.7770000000e+00 0.0000e+00 1.0000e+00
       15  1    3    3    0    0 +3.7128935224e+01 -4.6025954005e+01 -1.5103483861e+03 1.5115066495e+03 1.7770000000e+00 0.0000e+00 1.0000e+00
       22  1    3    3    0    0 -3.6456678114e-04 +1.5871641135e-03 -1.7807049100e-02 1.7881358911e-02 0.0000000000e+00 0.0000e+00 1.0000e+00
<mgrwt>
<rscale>  2 0.12500000E+03</rscale>
<asrwt>0</asrwt>
<pdfrwt beam="1">  1       21 0.25139543E-03 0.12500000E+03</pdfrwt>
<pdfrwt beam="2">  1       21 0.33603524E+00 0.12500000E+03</pdfrwt>
<totfact> 0.36722058E+05</totfact>
</mgrwt>
</event>
<event>
 6      0 +4.1053447e-01 1.25000000e+02 7.54677100e-03 1.12640300e-01
       21 -1    0    0  502  501 +0.0000000000e+00 +0.0000000000e+00 +5.0080284728e+02 5.0080284728e+02 0.0000000000e+00 0.0000e+00 -1.0000e+00
       21 -1    0    0  501  502 -0.0000000000e+00 -0.0000000000e+00 -7.7999756215e+00 7.7999756215e+00 0.0000000000e+00 0.0000e+00 -1.0000e+00
       25  2    1    2    0    0 +0.0000000000e+00 +0.0000000000e+00 +4.9300287166e+02 5.0860282290e+02 1.2500000000e+02 0.0000e+00 0.0000e+00
      -15  1    3    3    0    0 +3.3932246881e+01 +3.3532507360e+01 +8.2367808032e+01 9.5202100592e+01 1.7770000000e+00 0.0000e+00 1.0000e+00
       15  1    3    3    0    0 -3.3931897606e+01 -3.3532335435e+01 +4.1063370815e+02 4.1339931204e+02 1.7770000000e+00 0.0000e+00 1.0000e+00
       22  1    3    3    0    0 -3.4927532854e-04 -1.7192510455e-04 +1.3555279277e-03 1.4103217574e-03 0.0000000000e+00 0.0000e+00 1.0000e+00
<mgrwt>
<rscale>  2 0.12500000E+03</rscale>
<asrwt>0</asrwt>
<pdfrwt beam="1">  1       21 0.73647456E-01 0.12500000E+03</pdfrwt>
<pdfrwt beam="2">  1       21 0.11470556E-02 0.12500000E+03</pdfrwt>
<totfact> 0.44692256E+06</totfact>
</mgrwt>
</event>
<event>
 6      0 +4.1053447e-01 1.25000000e+02 7.54677100e-03 1.12640300e-01
       21 -1    0    0  502  501 +0.0000000000e+00 +0.0000000000e+00 +2.0175454827e+02 2.0175454827e+02 0.0000000000e+00 0.0000e+00 -1.0000e+00
       21 -1    0    0  501  502 -0.0000000000e+00 -0.0000000000e+00 -1.9361397467e+01 1.9361397467e+01 0.0000000000e+00 0.0000e+00 -1.0000e+00
       25  2    1    2    0    0 +0.0000000000e+00 +0.0000000000e+00 +1.8239315081e+02 2.2111594574e+02 1.2500000000e+02 0.0000e+00 0.0000e+00
      -15  1    3    3    0    0 +1.3425994576e+00 -4.4034440571e+01 +1.6955542916e+02 1.7519428020e+02 1.7770000000e+00 0.0000e+00 1.0000e+00
       15  1    3    3    0    0 -1.3425993927e+00 +4.4034440569e+01 +1.2837721514e+01 4.5921665388e+01 1.7770000000e+00 0.0000e+00 1.0000e+00
       22  1    3    3    0    0 -6.4906635457e-08 +1.6599632965e-09 +1.4755290149e-07 1.6120634461e-07 0.0000000000e+00 0.0000e+00 -1.0000e+00
<mgrwt>
<rscale>  2 0.12500000E+03</rscale>
<asrwt>0</asrwt>
<pdfrwt beam="1">  1       21 0.29669785E-01 0.12500000E+03</pdfrwt>
<pdfrwt beam="2">  1       21 0.28472644E-02 0.12500000E+03</pdfrwt>
<totfact> 0.73840337E+06</totfact>
</mgrwt>
</event>
<event>
 6      0 +4.1053447e-01 1.25000000e+02 7.54677100e-03 1.12640300e-01
       21 -1    0    0  502  501 +0.0000000000e+00 +0.0000000000e+00 +2.7580470833e+02 2.7580470833e+02 0.0000000000e+00 0.0000e+00 -1.0000e+00
       21 -1    0    0  501  502 -0.0000000000e+00 -0.0000000000e+00 -1.4163101216e+01 1.4163101216e+01 0.0000000000e+00 0.0000e+00 -1.0000e+00
       25  2    1    2    0    0 +0.0000000000e+00 +0.0000000000e+00 +2.6164160712e+02 2.8996780955e+02 1.2500000000e+02 0.0000e+00 0.0000e+00
      -15  1    3    3    0    0 -8.2711163165e+00 -5.3628617998e+01 +5.8997697664e+01 8.0176842617e+01 1.7770000000e+00 0.0000e+00 1.0000e+00
       15  1    3    3    0    0 +8.2695545662e+00 +5.3627943695e+01 +2.0263481680e+02 2.0978171652e+02 1.7770000000e+00 0.0000e+00 1.0000e+00
       22  1    3    3    0    0 +1.5617503219e-03 +6.7430220714e-04 +9.0926698148e-03 9.2504265791e-03 0.0000000000e+00 0.0000e+00 -1.0000e+00
<mgrwt>
<rscale>  2 0.12500000E+03</rscale>
<asrwt>0</asrwt>
<pdfrwt beam="1">  1       21 0.40559513E-01 0.12500000E+03</pdfrwt>
<pdfrwt beam="2">  1       21 0.20828092E-02 0.12500000E+03</pdfrwt>
<totfact> 0.65113573E+06</totfact>
</mgrwt>
</event>
<event>
 6      0 +4.1053447e-01 1.25000000e+02 7.54677100e-03 1.12640300e-01
       21 -1    0    0  502  501 +0.0000000000e+00 +0.0000000000e+00 +6.3484035219e+01 6.3484035219e+01 0.0000000000e+00 0.0000e+00 -1.0000e+00
       21 -1    0    0  501  502 -0.0000000000e+00 -0.0000000000e+00 -6.1531217833e+01 6.1531217833e+01 0.0000000000e+00 0.0000e+00 -1.0000e+00
       25  2    1    2    0    0 +0.0000000000e+00 +0.0000000000e+00 +1.9528173865e+00 1.2501525305e+02 1.2500000000e+02 0.0000e+00 0.0000e+00
      -15  1    3    3    0    0 -5.4739848348e+01 +2.9882429675e+01 -2.7229168499e+00 6.2449840718e+01 1.7770000000e+00 0.0000e+00 -1.0000e+00
       15  1    3    3    0    0 +5.4739841742e+01 -2.9882425988e+01 +4.6757337644e+00 6.2565404754e+01 1.7770000000e+00 0.0000e+00 -1.0000e+00
       22  1    3    3    0    0 +6.6066435844e-06 -3.6864329722e-06 +4.7198776482e-07 7.5802572489e-06 0.0000000000e+00 0.0000e+00 -1.0000e+00
<mgrwt>
<rscale>  2 0.12500000E+03</rscale>
<asrwt>0</asrwt>
<pdfrwt beam="1">  1       21 0.93358876E-02 0.12500000E+03</pdfrwt>
<pdfrwt beam="2">  1       21 0.90487084E-02 0.12500000E+03</pdfrwt>
<totfact> 0.88999028E+06</totfact>
</mgrwt>
</event>
<event>
 6      0 +4.1053447e-01 1.25000000e+02 7.54677100e-03 1.12640300e-01
       21 -1    0    0  502  501 +0.0000000000e+00 +0.0000000000e+00 +4.2982833610e+01 4.2982833610e+01 0.0000000000e+00 0.0000e+00 -1.0000e+00
       21 -1    0    0  501  502 -0.0000000000e+00 -0.0000000000e+00 -9.0879303944e+01 9.0879303944e+01 0.0000000000e+00 0.0000e+00 -1.0000e+00
       25  2    1    2    0    0 +0.0000000000e+00 +0.0000000000e+00 -4.7896470334e+01 1.3386213755e+02 1.2500000000e+02 0.0000e+00 0.0000e+00
      -15  1    3    3    0    0 +4.2152681540e+01 -1.6581359210e+01 +2.2128898388e+01 5.0444384297e+01 1.7770000000e+00 0.0000e+00 -1.0000e+00
       15  1    3    3    0    0 -4.2128465536e+01 +1.6572636436e+01 -6.9991304303e+01 8.3375057985e+01 1.7770000000e+00 0.0000e+00 -1.0000e+00
       22  1    3    3    0    0 -2.4216004106e-02 +8.7227742228e-03 -3.4064419526e-02 4.2695272837e-02 0.0000000000e+00 0.0000e+00 1.0000e+00
<mgrwt>
<rscale>  2 0.12500000E+03</rscale>
<asrwt>0</asrwt>
<pdfrwt beam="1">  1       21 0.63210049E-02 0.12500000E+03</pdfrwt>
<pdfrwt beam="2">  1       21 0.13364604E-01 0.12500000E+03</pdfrwt>
<totfact> 0.87405641E+06</totfact>
</mgrwt>
</event>
<event>
 6      0 +4.1053447e-01 1.25000000e+02 7.54677100e-03 1.12640300e-01
       21 -1    0    0  502  501 +0.0000000000e+00 +0.0000000000e+00 +5.4085602513e+00 5.4085602513e+00 0.0000000000e+00 0.0000e+00 1.0000e+00
       21 -1    0    0  501  502 -0.0000000000e+00 -0.0000000000e+00 -7.2223472023e+02 7.2223472023e+02 0.0000000000e+00 0.0000e+00 1.0000e+00
       25  2    1    2    0    0 +0.0000000000e+00 +0.0000000000e+00 -7.1682615998e+02 7.2764328049e+02 1.2500000000e+02 0.0000e+00 0.0000e+00
      -15  1    3    3    0    0 -1.3571384200e+00 +5.2272132319e+01 -1.5939508690e+02 1.6776223979e+02 1.7770000000e+00 0.0000e+00 1.0000e+00
       15  1    3    3    0    0 +1.3573028707e+00 -5.2271333373e+01 -5.5742353099e+02 5.5987345463e+02 1.7770000000e+00 0.0000e+00 1.0000e+00
       22  1    3    3    0    0 -1.6445076013e-04 -7.9894606875e-04 -7.5418435510e-03 7.5858264560e-03 0.0000000000e+00 0.0000e+00 1.0000e+00
<mgrwt>
<rscale>  2 0.12500000E+03</rscale>
<asrwt>0</asrwt>
<pdfrwt beam="1">  1       21 0.79537647E-03 0.12500000E+03</pdfrwt>
<pdfrwt beam="2">  1       21 0.10621099E+00 0.12500000E+03</pdfrwt>
<totfact> 0.31547267E+06</totfact>
</mgrwt>
</event>
<event>
 6      0 +4.1053447e-01 1.25000000e+02 7.54677100e-03 1.12640300e-01
       21 -1    0    0  502  501 +0.0000000000e+00 +0.0000000000e+00 +4.5508344870e+02 4.5508344870e+02 0.0000000000e+00 0.0000e+00 1.0000e+00
       21 -1    0    0  501  502 -0.0000000000e+00 -0.0000000000e+00 -8.5835905726e+00 8.5835905726e+00 0.0000000000e+00 0.0000e+00 1.0000e+00
       25  2    1    2    0    0 +0.0000000000e+00 +0.0000000000e+00 +4.4649985813e+02 4.6366703927e+02 1.2500000000e+02 0.0000e+00 0.0000e+00
      -15  1    3    3    0    0 +2.4508802557e+01 +4.0737072472e+00 +1.0623220421e+01 2.7079273155e+01 1.7770000000e+00 0.0000e+00 -1.0000e+00
       15  1    3    3    0    0 -2.4508802550e+01 -4.0737072488e+00 +4.3587663772e+02 4.3658776613e+02 1.7770000000e+00 0.0000e+00 -1.0000e+00
       22  1    3    3    0    0 -7.4075310194e-09 +1.5973583388e-09 +5.7992769249e-08 5.8485761982e-08 0.0000000000e+00 0.0000e+00 1.0000e+00
<mgrwt>
<rscale>  2 0.12500000E+03</rscale>
<asrwt>0</asrwt>
<pdfrwt beam="1">  1       21 0.66924021E-01 0.12500000E+03</pdfrwt>
<pdfrwt beam="2">  1       21 0.12622930E-02 0.12500000E+03</pdfrwt>
<totfact> 0.48153992E+06</totfact>
</mgrwt>
</event>
<event>
 6      0 +4.1053447e-01 1.25000000e+02 7.54677100e-03 1.12640300e-01
       21 -1    0    0  502  501 +0.0000000000e+00 +0.0000000000e+00 +2.7253269852e+02 2.7253269852e+02 0.0000000000e+00 0.0000e+00 -1.0000e+00
       21 -1    0    0  501  502 -0.0000000000e+00 -0.0000000000e+00 -1.4333142486e+01 1.4333142486e+01 0.0000000000e+00 0.0000e+00 -1.0000e+00
       25  2    1    2    0    0 +0.0000000000e+00 +0.0000000000e+00 +2.5819955603e+02 2.8686584100e+02 1.2500000000e+02 0.0000e+00 0.0000e+00
      -15  1    3    3    0    0 -5.0538076779e+01 +3.3762640643e+01 +1.6181601199e+02 1.7286293001e+02 1.7770000000e+00 0.0000e+00 1.0000e+00
       15  1    3    3    0    0 +3.6404974302e+01 -2.3720787094e+01 +6.6597706268e+01 7.9538733353e+01 1.7770000000e+00 0.0000e+00 1.0000e+00
       22  1    3    3    0    0 +1.4133102477e+01 -1.0041853549e+01 +2.9785837788e+01 3.4464177650e+01 0.0000000000e+00 0.0000e+00 1.0000e+00
<mgrwt>
<rscale>  2 0.12500000E+03</rscale>
<asrwt>0</asrwt>
<pdfrwt beam="1">  1       21 0.40078335E-01 0.12500000E+03</pdfrwt>
<pdfrwt beam="2">  1       21 0.21078152E-02 0.12500000E+03</pdfrwt>
<totfact> 0.65477698E+06</totfact>
</mgrwt>
</event>
<event>
 6      0 +4.1053447e-01 1.25000000e+02 7.54677100e-03 1.12640300e-01
       21 -1    0    0  502  501 +0.0000000000e+00 +0.0000000000e+00 +1.2957540514e+01 1.2957540514e+01 0.0000000000e+00 0.0000e+00 1.0000e+00
       21 -1    0    0  501  502 -0.0000000000e+00 -0.0000000000e+00 -3.0146538964e+02 3.0146538964e+02 0.0000000000e+00 0.0000e+00 1.0000e+00
       25  2    1    2    0    0 +0.0000000000e+00 +0.0000000000e+00 -2.8850784913e+02 3.1442293016e+02 1.2500000000e+02 0.0000e+00 0.0000e+00
      -15  1    3    3    0    0 -2.0112647515e+01 -1.2232434201e+00 +4.4960215581e+00 2.0721651801e+01 1.7770000000e+00 0.0000e+00 -1.0000e+00
       15  1    3    3    0    0 +2.0112647346e+01 +1.2232439038e+00 -2.9300386809e+02 2.9370127571e+02 1.7770000000e+00 0.0000e+00 -1.0000e+00
       22  1    3    3    0    0 +1.6968474509e-07 -4.8362037637e-07 -2.5878273003e-06 2.6380924391e-06 0.0000000000e+00 0.0000e+00 -1.0000e+00
<mgrwt>
<rscale>  2 0.12500000E+03</rscale>
<asrwt>0</asrwt>
<pdfrwt beam="1">  1       21 0.19055211E-02 0.12500000E+03</pdfrwt>
<pdfrwt beam="2">  1       21 0.44333136E-01 0.12500000E+03</pdfrwt>
<totfact> 0.62321273E+06</totfact>
</mgrwt>
</event>
<event>
 6      0 +4.1053447e-01 1.25000000e+02 7.54677100e-03 1.12640300e-01
       21 -1    0    0  502  501 +0.0000000000e+00 +0.0000000000e+00 +3.7652679901e+01 3.7652679901e+01 0.0000000000e+00 0.0000e+00 -1.0000e+00
       21 -1    0    0  501  502 -0.0000000000e+00 -0.0000000000e+00 -1.0374427558e+02 1.0374427558e+02 0.0000000000e+00 0.0000e+00 -1.0000e+00
       25  2    1    2    0    0 +0.0000000000e+00 +0.0000000000e+00 -6.6091595678e+01 1.4139695548e+02 1.2500000000e+02 0.0000e+00 0.0000e+00
      -15  1    3    3    0    0 +4.9684974896e+00 -3.5110371023e+01 -9.1038936795e+01 9.7717295615e+01 1.7770000000e+00 0.0000e+00 -1.0000e+00
       15  1    3    3    0    0 -4.9685719081e+00 +3.5170972071e+01 +2.5090356605e+01 4.3524334651e+01 1.7770000000e+00 0.0000e+00 -1.0000e+00
       22  1    3    3    0    0 +7.4418525335e-05 -6.0601048378e-02 -1.4301548851e-01 1.5532521545e-01 0.0000000000e+00 0.0000e+00 -1.0000e+00
<mgrwt>
<rscale>  2 0.12500000E+03</rscale>
<asrwt>0</asrwt>
<pdfrwt beam="1">  1       21 0.55371589E-02 0.12500000E+03</pdfrwt>
<pdfrwt beam="2">  1       21 0.15256511E-01 0.12500000E+03</pdfrwt>
<totfact> 0.86098453E+06</totfact>
</mgrwt>
</event>
<event>
 6      0 +4.1053447e-01 1.25000000e+02 7.54677100e-03 1.12640300e-01
       21 -1    0    0  502  501 +0.0000000000e+00 +0.0000000000e+00 +7.0211611160e+01 7.0211611160e+01 0.0000000000e+00 0.0000e+00 1.0000e+00
       21 -1    0    0  501  502 -0.0000000000e+00 -0.0000000000e+00 -5.5635384739e+01 5.5635384739e+01 0.0000000000e+00 0.0000e+00 1.0000e+00
       25  2    1    2    0    0 +0.0000000000e+00 +0.0000000000e+00 +1.4576226421e+01 1.2584699590e+02 1.2500000000e+02 0.0000e+00 0.0000e+00
      -15  1    3    3    0    0 +1.1454822547e+01 -2.3239473368e+01 -2.2327457962e+01 3.4248491792e+01 1.7770000000e+00 0.0000e+00 -1.0000e+00
       15  1    3    3    0    0 -1.9802522395e+01 +3.9917857006e+01 +5.1346917794e+01 6.8009108928e+01 1.7770000000e+00 0.0000e+00 -1.0000e+00
       22  1    3    3    0    0 +8.3476998479e+00 -1.6678383638e+01 -1.4443233412e+01 2.3589395180e+01 0.0000000000e+00 0.0000e+00 -1.0000e+00
<mgrwt>
<rscale>  2 0.12500000E+03</rscale>
<asrwt>0</asrwt>
<pdfrwt beam="1">  1       21 0.10325237E-01 0.12500000E+03</pdfrwt>
<pdfrwt beam="2">  1       21 0.81816742E-02 0.12500000E+03</pdfrwt>
<totfact> 0.88839529E+06</totfact>
</mgrwt>
</event>
<event>
 6      0 +4.1053447e-01 1.25000000e+02 7.54677100e-03 1.12640300e-01
       21 -1    0    0  502  501 +0.0000000000e+00 +0.0000000000e+00 +1.2806362643e+02 1.2806362643e+02 0.0000000000e+00 0.0000e+00 1.0000e+00
       21 -1    0    0  501  502 -0.0000000000e+00 -0.0000000000e+00 -3.0502415938e+01 3.0502415938e+01 0.0000000000e+00 0.0000e+00 1.0000e+00
       25  2    1    2    0    0 +0.0000000000e+00 +0.0000000000e+00 +9.7561210495e+01 1.5856604237e+02 1.2500000000e+02 0.0000e+00 0.0000e+00
      -15  1    3    3    0    0 +3.1717209359e+01 +3.2270200612e-01 -1.9496017519e+01 3.7273823713e+01 1.7770000000e+00 0.0000e+00 -1.0000e+00
       15  1    3    3    0    0 -3.1664787183e+01 -3.2971191947e-01 +1.1679964820e+02 1.2102926508e+02 1.7770000000e+00 0.0000e+00 -1.0000e+00
       22  1    3    3    0    0 -5.2422175640e-02 +7.0099133511e-03 +2.5757981198e-01 2.6295357560e-01 0.0000000000e+00 0.0000e+00 1.0000e+00
<mgrwt>
<rscale>  2 0.12500000E+03</rscale>
<asrwt>0</asrwt>
<pdfrwt beam="1">  1       21 0.18832886E-01 0.12500000E+03</pdfrwt>
<pdfrwt beam="2">  1       21 0.44856495E-02 0.12500000E+03</pdfrwt>
<totfact> 0.83212276E+06</totfact>
</mgrwt>
</event>
<event>
 6      0 +4.1053447e-01 1.25000000e+02 7.54677100e-03 1.12640300e-01
       21 -1    0    0  502  501 +0.0000000000e+00 +0.0000000000e+00 +5.5949286312e+02 5.5949286312e+02 0.0000000000e+00 0.0000e+00 -1.0000e+00
       21 -1    0    0  501  502 -0.0000000000e+00 -0.0000000000e+00 -6.9817691297e+00 6.9817691297e+00 0.0000000000e+00 0.0000e+00 -1.0000e+00
       25  2    1    2    0    0 +0.0000000000e+00 +0.0000000000e+00 +5.5251109399e+02 5.6647463225e+02 1.2500000000e+02 0.0000e+00 0.0000e+00
      -15  1    3    3    0    0 +2.9316485636e+01 +2.5350230353e+01 +4.9594785487e+02 4.9746308706e+02 1.7770000000e+00 0.0000e+00 -1.0000e+00
       15  1    3    3    0    0 -2.7541140497e+01 -2.4354200213e+01 +4.9654420839e+01 6.1809066696e+01 1.7770000000e+00 0.0000e+00 -1.0000e+00
       22  1    3    3    0    0 -1.7753451385e+00 -9.9603013976e-01 +6.9088182701e+00 7.2024784824e+00 0.0000000000e+00 0.0000e+00 -1.0000e+00
<mgrwt>
<rscale>  2 0.12500000E+03</rscale>
<asrwt>0</asrwt>
<pdfrwt beam="1">  1       21 0.82278332E-01 0.12500000E+03</pdfrwt>
<pdfrwt beam="2">  1       21 0.10267311E-02 0.12500000E+03</pdfrwt>
<totfact> 0.40696467E+06</totfact>
</mgrwt>
</event>
<event>
 6      0 +4.1053447e-01 1.25000000e+02 7.54677100e-03 1.12640300e-01
       21 -1    0    0  502  501 +0.0000000000e+00 +0.0000000000e+00 +8.5782078627e+01 8.5782078627e+01 0.0000000000e+00 0.0000e+00 1.0000e+00
       21 -1    0    0  501  502 -0.0000000000e+00 -0.0000000000e+00 -4.5536900744e+01 4.5536900744e+01 0.0000000000e+00 0.0000e+00 1.0000e+00
       25  2    1    2    0    0 +0.0000000000e+00 +0.0000000000e+00 +4.0245177883e+01 1.3131897937e+02 1.2500000000e+02 0.0000e+00 0.0000e+00
      -15  1    3    3    0    0 +3.1240050729e+01 +7.9502141266e+00 +7.6201539906e+01 8.2758558997e+01 1.7770000000e+00 0.0000e+00 1.0000e+00
       15  1    3    3    0    0 -3.1287070012e+01 -7.9592349642e+00 -3.6068268525e+01 4.8438702446e+01 1.7770000000e+00 0.0000e+00 1.0000e+00
       22  1    3    3    0    0 +4.7019283408e-02 +9.0208376167e-03 +1.1190650245e-01 1.2171792725e-01 0.0000000000e+00 0.0000e+00 -1.0000e+00
<mgrwt>
<rscale>  2 0.12500000E+03</rscale>
<asrwt>0</asrwt>
<pdfrwt beam="1">  1       21 0.12615012E-01 0.12500000E+03</pdfrwt>
<pdfrwt beam="2">  1       21 0.66966031E-02 0.12500000E+03</pdfrwt>
<totfact> 0.87858504E+06</totfact>
</mgrwt>
</event>
<event>
 6      0 +4.1053447e-01 1.25000000e+02 7.54677100e-03 1.12640300e-01
       21 -1    0    0  502  501 +0.0000000000e+00 +0.0000000000e+00 +9.2579941357e+01 9.2579941357e+01 0.0000000000e+00 0.0000e+00 1.0000e+00
       21 -1    0    0  501  502 -0.0000000000e+00 -0.0000000000e+00 -4.2193265007e+01 4.2193265007e+01 0.0000000000e+00 0.0000e+00 1.0000e+00
       25  2    1    2    0    0 +0.0000000000e+00 +0.0000000000e+00 +5.0386676350e+01 1.3477320636e+02 1.2500000000e+02 0.0000e+00 0.0000e+00
      -15  1    3    3    0    0 +1.6805605489e+01 +4.2171446279e+01 -2.1081011018e+01 5.0084189239e+01 1.7770000000e+00 0.0000e+00 -1.0000e+00
       15  1    3    3    0    0 -1.6724160406e+01 -4.1918261449e+01 +7.1142452602e+01 8.4268882011e+01 1.7770000000e+00 0.0000e+00 -1.0000e+00
       22  1    3    3    0    0 -8.1445083005e-02 -2.5318483086e-01 +3.2523476877e-01 4.2013511510e-01 0.0000000000e+00 0.0000e+00 -1.0000e+00
<mgrwt>
<rscale>  2 0.12500000E+03</rscale>
<asrwt>0</asrwt>
<pdfrwt beam="1">  1       21 0.13614697E-01 0.12500000E+03</pdfrwt>
<pdfrwt beam="2">  1       21 0.62048919E-02 0.12500000E+03</pdfrwt>
<totfact> 0.87245588E+06</totfact>
</mgrwt>
</event>
<event>
 6      0 +4.1053447e-01 1.25000000e+02 7.54677100e-03 1.12640300e-01
       21 -1    0    0  502  501 +0.0000000000e+00 +0.0000000000e+00 +6.5136017611e+02 6.5136017611e+02 0.0000000000e+00 0.0000e+00 -1.0000e+00
       21 -1    0    0  501  502 -0.0000000000e+00 -0.0000000000e+00 -5.9970660523e+00 5.9970660523e+00 0.0000000000e+00 0.0000e+00 -1.0000e+00
       25  2    1    2    0    0 +0.0000000000e+00 +0.0000000000e+00 +6.4536311006e+02 6.5735724216e+02 1.2500000000e+02 0.0000e+00 0.0000e+00
      -15  1    3    3    0    0 +5.5050802047e+01 -2.4338250094e+01 +2.5269301242e+02 2.5976885394e+02 1.7770000000e+00 0.0000e+00 1.0000e+00
       15  1    3    3    0    0 -5.5944338246e+01 +2.4722701957e+01 +3.8934513149e+02 3.9412405423e+02 1.7770000000e+00 0.0000e+00 1.0000e+00
       22  1    3    3    0    0 +8.9353619865e-01 -3.8445186291e-01 +3.3249662766e+00 3.4643341227e+00 0.0000000000e+00 0.0000e+00 1.0000e+00
<mgrwt>
<rscale>  2 0.12500000E+03</rscale>
<asrwt>0</asrwt>
<pdfrwt beam="1">  1       21 0.95788213E-01 0.12500000E+03</pdfrwt>
<pdfrwt beam="2">  1       21 0.88192193E-03 0.12500000E+03</pdfrwt>
<totfact> 0.35152803E+06</totfact>
</mgrwt>
</event>
<event>
 6      0 +4.1053447e-01 1.25000000e+02 7.54677100e-03 1.12640300e-01
       21 -1    0    0  502  501 +0.0000000000e+00 +0.0000000000e+00 +5.6154215255e+02 5.6154215255e+02 0.0000000000e+00 0.0000e+00 -1.0000e+00
       21 -1    0    0  501  502 -0.0000000000e+00 -0.0000000000e+00 -6.9562898926e+00 6.9562898926e+00 0.0000000000e+00 0.0000e+00 -1.0000e+00
       25  2    1    2    0    0 +0.0000000000e+00 +0.0000000000e+00 +5.5458586265e+02 5.6849844244e+02 1.2500000000e+02 0.0000e+00 0.0000e+00
      -15  1    3    3    0    0 +5.3466979357e+01 +1.6449117120e+01 +4.0380556328e+02 4.0766577242e+02 1.7770000000e+00 0.0000e+00 1.0000e+00
       15  1    3    3    0    0 -5.3466979310e+01 -1.6449117079e+01 +1.5078029916e+02 1.6083266980e+02 1.7770000000e+00 0.0000e+00 1.0000e+00
       22  1    3    3    0    0 -4.7079104609e-08 -4.1278248750e-08 +1.0964104096e-07 1.2625962844e-07 0.0000000000e+00 0.0000e+00 1.0000e+00
<mgrwt>
<rscale>  2 0.12500000E+03</rscale>
<asrwt>0</asrwt>
<pdfrwt beam="1">  1       21 0.82579698E-01 0.12500000E+03</pdfrwt>
<pdfrwt beam="2">  1       21 0.10229842E-02 0.12500000E+03</pdfrwt>
<totfact> 0.40563202E+06</totfact>
</mgrwt>
</event>
<event>
 6      0 +4.1053447e-01 1.25000000e+02 7.54677100e-03 1.12640300e-01
       21 -1    0    0  502  501 +0.0000000000e+00 +0.0000000000e+00 +2.6936716872e+02 2.6936716872e+02 0.0000000000e+00 0.0000e+00 1.0000e+00
       21 -1    0    0  501  502 -0.0000000000e+00 -0.0000000000e+00 -1.4501581683e+01 1.4501581683e+01 0.0000000000e+00 0.0000e+00 1.0000e+00
       25  2    1    2    0    0 +0.0000000000e+00 +0.0000000000e+00 +2.5486558704e+02 2.8386875040e+02 1.2500000000e+02 0.0000e+00 0.0000e+00
      -15  1    3    3    0    0 +3.3586463233e+01 -5.1845139826e+01 +1.0623578530e+02 1.2290308720e+02 1.7770000000e+00 0.0000e+00 -1.0000e+00
       15  1    3    3    0    0 -3.3586463085e+01 +5.1845139637e+01 +1.4862980129e+02 1.6096566270e+02 1.7770000000e+00 0.0000e+00 -1.0000e+00
       22  1    3    3    0    0 -1.4882277126e-07 +1.8891008095e-07 +4.7263513016e-07 5.3030104864e-07 0.0000000000e+00 0.0000e+00 -1.0000e+00
<mgrwt>
<rscale>  2 0.12500000E+03</rscale>
<asrwt>0</asrwt>
<pdfrwt beam="1">  1       21 0.39612816E-01 0.12500000E+03</pdfrwt>
<pdfrwt beam="2">  1       21 0.21325857E-02 0.12500000E+03</pdfrwt>
<totfact> 0.65831562E+06</totfact>
</mgrwt>
</event>
<event>
 6      0 +4.1053447e-01 1.25000000e+02 7.54677100e-03 1.12640300e-01
       21 -1    0    0  502  501 +0.0000000000e+00 +0.0000000000e+00 +2.4008632591e+02 2.4008632591e+02 0.0000000000e+00 0.0000e+00 1.0000e+00
       21 -1    0    0  501  502 -0.0000000000e+00 -0.0000000000e+00 -1.6270189421e+01 1.6270189421e+01 0.0000000000e+00 0.0000e+00 1.0000e+00
       25  2    1    2    0    0 +0.0000000000e+00 +0.0000000000e+00 +2.2381613649e+02 2.5635651533e+02 1.2500000000e+02 0.0000e+00 0.0000e+00
      -15  1    3    3    0    0 -1.0738924132e+01 -5.0821429413e+01 +1.7845496914e+02 1.8586951315e+02 1.7770000000e+00 0.0000e+00 1.0000e+00
       15  1    3    3    0    0 +1.0802031128e+01 +5.1515471372e+01 +4.2894145694e+01 6.7923435801e+01 1.7770000000e+00 0.0000e+00 1.0000e+00
       22  1    3    3    0    0 -6.3106996057e-02 -6.9404195964e-01 +2.4670216588e+00 2.5635663829e+00 0.0000000000e+00 0.0000e+00 -1.0000e+00
<mgrwt>
<rscale>  2 0.12500000E+03</rscale>
<asrwt>0</asrwt>
<pdfrwt beam="1">  1       21 0.35306811E-01 0.12500000E+03</pdfrwt>
<pdfrwt beam="2">  1       21 0.23926750E-02 0.12500000E+03</pdfrwt>
<totfact> 0.69192967E+06</totfact>
</mgrwt>
</event>
<event>
 6      0 +4.1053447e-01 1.25000000e+02 7.54677100e-03 1.12640300e-01
       21 -1    0    0  502  501 +0.0000000000e+00 +0.0000000000e+00 +1.1103248357e+01 1.1103248357e+01 0.0000000000e+00 0.0000e+00 1.0000e+00
       21 -1    0    0  501  502 -0.0000000000e+00 -0.0000000000e+00 -3.5181145863e+02 3.5181145863e+02 0.0000000000e+00 0.0000e+00 1.0000e+00
       25  2    1    2    0    0 +0.0000000000e+00 +0.0000000000e+00 -3.4070821028e+02 3.6291470699e+02 1.2500000000e+02 0.0000e+00 0.0000e+00
      -15  1    3    3    0    0 +8.4410324666e+00 -4.0595837562e+01 -3.0602985421e+02 3.0883118763e+02 1.7770000000e+00 0.0000e+00 -1.0000e+00
       15  1    3    3    0    0 -8.4410999673e+00 +4.0594799019e+01 -3.4677892513e+01 5.4082380070e+01 1.7770000000e+00 0.0000e+00 -1.0000e+00
       22  1    3    3    0    0 +6.7500679518e-05 +1.0385437869e-03 -4.6358016005e-04 1.1393138742e-03 0.0000000000e+00 0.0000e+00 1.0000e+00
<mgrwt>
<rscale>  2 0.12500000E+03</rscale>
<asrwt>0</asrwt>
<pdfrwt beam="1">  1       21 0.16328309E-02 0.12500000E+03</pdfrwt>
<pdfrwt beam="2">  1       21 0.51736970E-01 0.12500000E+03</pdfrwt>
<totfact> 0.57222861E+06</totfact>
</mgrwt>
</event>
<event>
 6      0 +4.1053447e-01 1.25000000e+02 7.54677100e-03 1.12640300e-01
       21 -1    0    0  502  501 +0.0000000000e+00 +0.0000000000e+00 +1.0842762044e+02 1.0842762044e+02 0.0000000000e+00 0.0000e+00 1.0000e+00
       21 -1    0    0  501  502 -0.0000000000e+00 -0.0000000000e+00 -3.6026337055e+01 3.6026337055e+01 0.0000000000e+00 0.0000e+00 1.0000e+00
       25  2    1    2    0    0 +0.0000000000e+00 +0.0000000000e+00 +7.2401283382e+01 1.4445395749e+02 1.2500000000e+02 0.0000e+00 0.0000e+00
      -15  1    3    3    0    0 -2.2384985401e+01 +7.0884524491e-01 +1.0359891523e+02 1.0600699505e+02 1.7770000000e+00 0.0000e+00 -1.0000e+00
       15  1    3    3    0    0 +2.2385036846e+01 -7.0875930257e-01 -3.1198538745e+01 3.8446050034e+01 1.7770000000e+00 0.0000e+00 -1.0000e+00
       22  1    3    3    0    0 -5.1445193432e-05 -8.5942333758e-05 +9.0689487533e-04 9.1240945170e-04 0.0000000000e+00 0.0000e+00 -1.0000e+00
<mgrwt>
<rscale>  2 0.12500000E+03</rscale>
<asrwt>0</asrwt>
<pdfrwt beam="1">  1       21 0.15945238E-01 0.12500000E+03</pdfrwt>
<pdfrwt beam="2">  1       21 0.52979908E-02 0.12500000E+03</pdfrwt>
<totfact> 0.85568310E+06</totfact>
</mgrwt>
</event>
<event>
 6      0 +4.1053447e-01 1.25000000e+02 7.54677100e-03 1.12640300e-01
       21 -1    0    0  502  501 +0.0000000000e+00 +0.0000000000e+00 +1.4685889023e+02 1.4685889023e+02 0.0000000000e+00 0.0000e+00 1.0000e+00
       21 -1    0    0  501  502 -0.0000000000e+00 -0.0000000000e+00 -2.6598662116e+01 2.6598662116e+01 0.0000000000e+00 0.0000e+00 1.0000e+00
       25  2    1    2    0    0 +0.0000000000e+00 +0.0000000000e+00 +1.2026022811e+02 1.7345755235e+02 1.2500000000e+02 0.0000e+00 0.0000e+00
      -15  1    3    3    0    0 +1.4530749851e+00 +3.1468271862e+01 -1.4735788659e+01 3.4823336390e+01 1.7770000000e+00 0.0000e+00 -1.0000e+00
       15  1    3    3    0    0 -1.4530749825e+00 -3.1468271861e+01 +1.3499601676e+02 1.3863421595e+02 1.7770000000e+00 0.0000e+00 -1.0000e+00
       22  1    3    3    0    0 -2.5674047924e-09 -9.6627433191e-10 +1.9742048278e-09 3.3797541559e-09 0.0000000000e+00 0.0000e+00 1.0000e+00
<mgrwt>
<rscale>  2 0.12500000E+03</rscale>
<asrwt>0</asrwt>
<pdfrwt beam="1">  1       21 0.21596895E-01 0.12500000E+03</pdfrwt>
<pdfrwt beam="2">  1       21 0.39115680E-02 0.12500000E+03</pdfrwt>
<totfact> 0.80819076E+06</totfact>
</mgrwt>
</event>
<event>
 6      0 +4.1053447e-01 1.25000000e+02 7.54677100e-03 1.12640300e-01
       21 -1    0    0  502  501 +0.0000000000e+00 +0.0000000000e+00 +4.5993001626e+00 4.5993001626e+00 0.0000000000e+00 0.0000e+00 1.0000e+00
       21 -1    0    0  501  502 -0.0000000000e+00 -0.0000000000e+00 -8.4931399603e+02 8.4931399603e+02 0.0000000000e+00 0.0000e+00 1.0000e+00
       25  2    1    2    0    0 +0.0000000000e+00 +0.0000000000e+00 -8.4471469587e+02 8.5391329619e+02 1.2500000000e+02 0.0000e+00 0.0000e+00
      -15  1    3    3    0    0 +4.7120104043e+01 +4.0992245267e+01 -4.1172178305e+02 4.1643565258e+02 1.7770000000e+00 0.0000e+00 1.0000e+00
       15  1    3    3    0    0 -4.7120104040e+01 -4.0992245264e+01 -4.3299291305e+02 4.3747764383e+02 1.7770000000e+00 0.0000e+00 1.0000e+00
       22  1    3    3    0    0 -3.1968459111e-09 -2.3706011825e-09 -1.5134442577e-08 1.5648991209e-08 0.0000000000e+00 0.0000e+00 1.0000e+00
<mgrwt>
<rscale>  2 0.12500000E+03</rscale>
<asrwt>0</asrwt>
<pdfrwt beam="1">  1       21 0.67636819E-03 0.12500000E+03</pdfrwt>
<pdfrwt beam="2">  1       21 0.12489902E+00 0.12500000E+03</pdfrwt>
<totfact> 0.26122187E+06</totfact>
</mgrwt>
</event>
<event>
 6      0 +4.1053447e-01 1.25000000e+02 7.54677100e-03 1.12640300e-01
       21 -1    0    0  502  501 +0.0000000000e+00 +0.0000000000e+00 +2.5097810267e+01 2.5097810267e+01 0.0000000000e+00 0.0000e+00 1.0000e+00
       21 -1    0    0  501  502 -0.0000000000e+00 -0.0000000000e+00 -1.5564106822e+02 1.5564106822e+02 0.0000000000e+00 0.0000e+00 1.0000e+00
       25  2    1    2    0    0 +0.0000000000e+00 +0.0000000000e+00 -1.3054325796e+02 1.8073887849e+02 1.2500000000e+02 0.0000e+00 0.0000e+00
      -15  1    3    3    0    0 +5.4471545060e+01 +2.6569596234e+01 -4.3343324710e+01 7.4531162551e+01 1.7770000000e+00 0.0000e+00 -1.0000e+00
       15  1    3    3    0    0 -5.4471532103e+01 -2.6569588288e+01 -8.7199920903e+01 1.0620769636e+02 1.7770000000e+00 0.0000e+00 -1.0000e+00
       22  1    3    3    0    0 -1.2957379485e-05 -7.9462931841e-06 -1.2349743214e-05 1.9584519804e-05 0.0000000000e+00 0.0000e+00 1.0000e+00
<mgrwt>
<rscale>  2 0.12500000E+03</rscale>
<asrwt>0</asrwt>
<pdfrwt beam="1">  1       21 0.36908544E-02 0.12500000E+03</pdfrwt>
<pdfrwt beam="2">  1       21 0.22888393E-01 0.12500000E+03</pdfrwt>
<totfact> 0.79693430E+06</totfact>
</mgrwt>
</event>
<event>
 6      0 +4.1053447e-01 1.25000000e+02 7.54677100e-03 1.12640300e-01
       21 -1    0    0  502  501 +0.0000000000e+00 +0.0000000000e+00 +3.2514535300e+02 3.2514535300e+02 0.0000000000e+00 0.0000e+00 -1.0000e+00
       21 -1    0    0  501  502 -0.0000000000e+00 -0.0000000000e+00 -1.2013857691e+01 1.2013857691e+01 0.0000000000e+00 0.0000e+00 -1.0000e+00
       25  2    1    2    0    0 +0.0000000000e+00 +0.0000000000e+00 +3.1313149531e+02 3.3715921070e+02 1.2500000000e+02 0.0000e+00 0.0000e+00
      -15  1    3    3    0    0 -3.6379552534e+01 +2.5343408544e+01 +2.7528607124e+02 2.7883927081e+02 1.7770000000e+00 0.0000e+00 1.0000e+00
       15  1    3    3    0    0 +3.6379602696e+01 -2.5343462808e+01 +3.7845081773e+01 5.8319589700e+01 1.7770000000e+00 0.0000e+00 1.0000e+00
       22  1    3    3    0    0 -5.0161832664e-05 +5.4264014111e-05 +3.4224858081e-04 3.5013552198e-04 0.0000000000e+00 0.0000e+00 -1.0000e+00
<mgrwt>
<rscale>  2 0.12500000E+03</rscale>
<asrwt>0</asrwt>
<pdfrwt beam="1">  1       21 0.47815487E-01 0.12500000E+03</pdfrwt>
<pdfrwt beam="2">  1       21 0.17667440E-02 0.12500000E+03</pdfrwt>
<totfact> 0.59862910E+06</totfact>
</mgrwt>
</event>
<event>
 6      0 +4.1053447e-01 1.25000000e+02 7.54677100e-03 1.12640300e-01
       21 -1    0    0  502  501 +0.0000000000e+00 +0.0000000000e+00 +2.9445117809e+01 2.9445117809e+01 0.0000000000e+00 0.0000e+00 1.0000e+00
       21 -1    0    0  501  502 -0.0000000000e+00 -0.0000000000e+00 -1.3266206049e+02 1.3266206049e+02 0.0000000000e+00 0.0000e+00 1.0000e+00
       25  2    1    2    0    0 +0.0000000000e+00 +0.0000000000e+00 -1.0321694268e+02 1.6210717830e+02 1.2500000000e+02 0.0000e+00 0.0000e+00
      -15  1    3    3    0    0 +1.0231876049e+01 -5.6433907295e+01 -2.0090873364e+01 6.0797023789e+01 1.7770000000e+00 0.0000e+00 -1.0000e+00
       15  1    3    3    0    0 -9.6807332303e+00 +5.6484568790e+01 -8.2578996460e+01 1.0053194265e+02 1.7770000000e+00 0.0000e+00 -1.0000e+00
       22  1    3    3    0    0 -5.5114281841e-01 -5.0661494604e-02 -5.4707285563e-01 7.7821186235e-01 0.0000000000e+00 0.0000e+00 -1.0000e+00
<mgrwt>
<rscale>  2 0.12500000E+03</rscale>
<asrwt>0</asrwt>
<pdfrwt beam="1">  1       21 0.43301644E-02 0.12500000E+03</pdfrwt>
<pdfrwt beam="2">  1       21 0.19509126E-01 0.12500000E+03</pdfrwt>
<totfact> 0.82635870E+06</totfact>
</mgrwt>
</event>
<event>
 6      0 +4.1053447e-01 1.25000000e+02 7.54677100e-03 1.12640300e-01
       21 -1    0    0  502  501 +0.0000000000e+00 +0.0000000000e+00 +3.7350921261e+01 3.7350921261e+01 0.0000000000e+00 0.0000e+00 1.0000e+00
       21 -1    0    0  501  502 -0.0000000000e+00 -0.0000000000e+00 -1.0458242710e+02 1.0458242710e+02 0.0000000000e+00 0.0000e+00 1.0000e+00
       25  2    1    2    0    0 +0.0000000000e+00 +0.0000000000e+00 -6.7231505844e+01 1.4193334836e+02 1.2500000000e+02 0.0000e+00 0.0000e+00
      -15  1    3    3    0    0 -5.5723788507e+01 -4.0970541692e+00 -1.8802214632e+00 5.5934063148e+01 1.7770000000e+00 0.0000e+00 -1.0000e+00
       15  1    3    3    0    0 +5.5723589217e+01 +4.0971308932e+00 -6.5351075828e+01 8.5998986725e+01 1.7770000000e+00 0.0000e+00 -1.0000e+00
       22  1    3    3    0    0 +1.9928969179e-04 -7.6723980507e-05 -2.0855616702e-04 2.9849392831e-04 0.0000000000e+00 0.0000e+00 1.0000e+00
<mgrwt>
<rscale>  2 0.12500000E+03</rscale>
<asrwt>0</asrwt>
<pdfrwt beam="1">  1       21 0.54927827E-02 0.12500000E+03</pdfrwt>
<pdfrwt beam="2">  1       21 0.15379768E-01 0.12500000E+03</pdfrwt>
<totfact> 0.86005423E+06</totfact>
</mgrwt>
</event>
<event>
 6      0 +4.1053447e-01 1.25000000e+02 7.54677100e-03 1.12640300e-01
       21 -1    0    0  502  501 +0.0000000000e+00 +0.0000000000e+00 +5.8377463537e+00 5.8377463537e+00 0.0000000000e+00 0.0000e+00 1.0000e+00
       21 -1    0    0  501  502 -0.0000000000e+00 -0.0000000000e+00 -6.6913664338e+02 6.6913664338e+02 0.0000000000e+00 0.0000e+00 1.0000e+00
       25  2    1    2    0    0 +0.0000000000e+00 +0.0000000000e+00 -6.6329889703e+02 6.7497438973e+02 1.2500000000e+02 0.0000e+00 0.0000e+00
      -15  1    3    3    0    0 +4.1702324246e+01 +4.6064145215e+01 -3.6633862410e+02 3.7157520714e+02 1.7770000000e+00 0.0000e+00 -1.0000e+00
       15  1    3    3    0    0 -4.1646051987e+01 -4.6038866658e+01 -2.9677931261e+02 3.0320799629e+02 1.7770000000e+00 0.0000e+00 -1.0000e+00
       22  1    3    3    0    0 -5.6272259599e-02 -2.5278556589e-02 -1.8096052479e-01 1.9118651667e-01 0.0000000000e+00 0.0000e+00 -1.0000e+00
<mgrwt>
<rscale>  2 0.12500000E+03</rscale>
<asrwt>0</asrwt>
<pdfrwt beam="1">  1       21 0.85849191E-03 0.12500000E+03</pdfrwt>
<pdfrwt beam="2">  1       21 0.98402470E-01 0.12500000E+03</pdfrwt>
<totfact> 0.34212171E+06</totfact>
</mgrwt>
</event>
<event>
 6      0 +4.1053447e-01 1.25000000e+02 7.54677100e-03 1.12640300e-01
       21 -1    0    0  502  501 +0.0000000000e+00 +0.0000000000e+00 +3.7875380346e+02 3.7875380346e+02 0.0000000000e+00 0.0000e+00 -1.0000e+00
       21 -1    0    0  501  502 -0.0000000000e+00 -0.0000000000e+00 -1.0313427784e+01 1.0313427784e+01 0.0000000000e+00 0.0000e+00 -1.0000e+00
       25  2    1    2    0    0 +0.0000000000e+00 +0.0000000000e+00 +3.6844037568e+02 3.8906723125e+02 1.2500000000e+02 0.0000e+00 0.0000e+00
      -15  1    3    3    0    0 -1.6930601004e+00 +4.9890551640e+00 -7.5515021183e+00 9.3776349479e+00 1.7770000000e+00 0.0000e+00 1.0000e+00
       15  1    3    3    0    0 +3.0669065813e+00 -7.2466921269e+00 +3.7683057118e+02 3.7691691069e+02 1.7770000000e+00 0.0000e+00 1.0000e+00
       22  1    3    3    0    0 -1.3738464810e+00 +2.2576369629e+00 -8.3869339178e-01 2.7726855963e+00 0.0000000000e+00 0.0000e+00 -1.0000e+00
<mgrwt>
<rscale>  2 0.12500000E+03</rscale>
<asrwt>0</asrwt>
<pdfrwt beam="1">  1       21 0.55699080E-01 0.12500000E+03</pdfrwt>
<pdfrwt beam="2">  1       21 0.15166808E-02 0.12500000E+03</pdfrwt>
<totfact> 0.54678004E+06</totfact>
</mgrwt>
</event>
<event>
 6      0 +4.1053447e-01 1.25000000e+02 7.54677100e-03 1.12640300e-01
       21 -1    0    0  502  501 +0.0000000000e+00 +0.0000000000e+00 +4.1151785824e+01 4.1151785824e+01 0.0000000000e+00 0.0000e+00 1.0000e+00
       21 -1    0    0  501  502 -0.0000000000e+00 -0.0000000000e+00 -9.4922976531e+01 9.4922976531e+01 0.0000000000e+00 0.0000e+00 1.0000e+00
       25  2    1    2    0    0 +0.0000000000e+00 +0.0000000000e+00 -5.3771190707e+01 1.3607476236e+02 1.2500000000e+02 0.0000e+00 0.0000e+00
      -15  1    3    3    0    0 +4.1120785416e+01 -2.1677100655e+01 -7.2324318095e+01 8.5992909027e+01 1.7770000000e+00 0.0000e+00 -1.0000e+00
       15  1    3    3    0    0 -4.1120785713e+01 +2.1677100993e+01 +1.8553127102e+01 5.0081852795e+01 1.7770000000e+00 0.0000e+00 -1.0000e+00
       22  1    3    3    0    0 +2.9644499319e-07 -3.3762686327e-07 +2.8728465470e-07 5.3329542058e-07 0.0000000000e+00 0.0000e+00 -1.0000e+00
<mgrwt>
<rscale>  2 0.12500000E+03</rscale>
<asrwt>0</asrwt>
<pdfrwt beam="1">  1       21 0.60517334E-02 0.12500000E+03</pdfrwt>
<pdfrwt beam="2">  1       21 0.13959261E-01 0.12500000E+03</pdfrwt>
<totfact> 0.87018492E+06</totfact>
</mgrwt>
</event>
<event>
 6      0 +4.1053447e-01 1.25000000e+02 7.54677100e-03 1.12640300e-01
       21 -1    0    0  502  501 +0.0000000000e+00 +0.0000000000e+00 +4.9620273333e+02 4.9620273333e+02 0.0000000000e+00 0.0000e+00 -1.0000e+00
       21 -1    0    0  501  502 -0.0000000000e+00 -0.0000000000e+00 -7.8722863410e+00 7.8722863410e+00 0.0000000000e+00 0.0000e+00 -1.0000e+00
       25  2    1    2    0    0 +0.0000000000e+00 +0.0000000000e+00 +4.8833044699e+02 5.0407501968e+02 1.2500000000e+02 0.0000e+00 0.0000e+00
      -15  1    3    3    0    0 -1.6592570534e+00 -5.6901508062e+01 +3.4796509416e+02 3.5259523428e+02 1.7770000000e+00 0.0000e+00 -1.0000e+00
       15  1    3    3    0    0 +1.6592267190e+00 +5.6900665214e+01 +1.4036301603e+02 1.5147730105e+02 1.7770000000e+00 0.0000e+00 -1.0000e+00
       22  1    3    3    0    0 +3.0334392257e-05 +8.4284743664e-04 +2.3366788581e-03 2.4842262503e-03 0.0000000000e+00 0.0000e+00 1.0000e+00
<mgrwt>
<rscale>  2 0.12500000E+03</rscale>
<asrwt>0</asrwt>
<pdfrwt beam="1">  1       21 0.72970969E-01 0.12500000E+03</pdfrwt>
<pdfrwt beam="2">  1       21 0.11576895E-02 0.12500000E+03</pdfrwt>
<totfact> 0.45024184E+06</totfact>
</mgrwt>
</event>
<event>
 6      0 +4.1053447e-01 1.25000000e+02 7.54677100e-03 1.12640300e-01
       21 -1    0    0  502  501 +0.0000000000e+00 +0.0000000000e+00 +5.3955504138e+01 5.3955504138e+01 0.0000000000e+00 0.0000e+00 -1.0000e+00
       21 -1    0    0  501  502 -0.0000000000e+00 -0.0000000000e+00 -7.2397618415e+01 7.2397618415e+01 0.0000000000e+00 0.0000e+00 -1.0000e+00
       25  2    1    2    0    0 +0.0000000000e+00 +0.0000000000e+00 -1.8442114277e+01 1.2635312255e+02 1.2500000000e+02 0.0000e+00 0.0000e+00
      -15  1    3    3    0    0 -4.5053946157e+01 -2.6776681525e+01 +2.3258642918e+01 5.7366984732e+01 1.7770000000e+00 0.0000e+00 -1.0000e+00
       15  1    3    3    0    0 +4.5937311531e+01 +2.7110095575e+01 -4.2084859119e+01 6.7966807846e+01 1.7770000000e+00 0.0000e+00 -1.0000e+00
       22  1    3    3    0    0 -8.8336537349e-01 -3.3341405006e-01 +3.8410192349e-01 1.0193299757e+00 0.0000000000e+00 0.0000e+00 -1.0000e+00
<mgrwt>
<rscale>  2 0.12500000E+03</rscale>
<asrwt>0</asrwt>
<pdfrwt beam="1">  1       21 0.79346330E-02 0.12500000E+03</pdfrwt>
<pdfrwt beam="2">  1       21 0.10646709E-01 0.12500000E+03</pdfrwt>
<totfact> 0.88748298E+06</totfact>
</mgrwt>
</event>
<event>
 6      0 +4.1053447e-01 1.25000000e+02 7.54677100e-03 1.12640300e-01
       21 -1    0    0  502  501 +0.0000000000e+00 +0.0000000000e+00 +1.7237736475e+02 1.7237736475e+02 0.0000000000e+00 0.0000e+00 -1.0000e+00
       21 -1    0    0  501  502 -0.0000000000e+00 -0.0000000000e+00 -2.2661037925e+01 2.2661037925e+01 0.0000000000e+00 0.0000e+00 -1.0000e+00
       25  2    1    2    0    0 +0.0000000000e+00 +0.0000000000e+00 +1.4971632682e+02 1.9503840267e+02 1.2500000000e+02 0.0000e+00 0.0000e+00
      -15  1    3    3    0    0 +4.6200399327e+01 -3.9471522841e+01 +5.2317508552e+01 8.0204472715e+01 1.7770000000e+00 0.0000e+00 1.0000e+00
       15  1    3    3    0    0 -2.7361806715e+01 +2.2747537689e+01 +5.5917863954e+01 6.6302972602e+01 1.7770000000e+00 0.0000e+00 1.0000e+00
       22  1    3    3    0    0 -1.8838592612e+01 +1.6723985152e+01 +4.1480954316e+01 4.8530957357e+01 0.0000000000e+00 0.0000e+00 -1.0000e+00
<mgrwt>
<rscale>  2 0.12500000E+03</rscale>
<asrwt>0</asrwt>
<pdfrwt beam="1">  1       21 0.25349612E-01 0.12500000E+03</pdfrwt>
<pdfrwt beam="2">  1       21 0.33325057E-02 0.12500000E+03</pdfrwt>
<totfact> 0.77548904E+06</totfact>
</mgrwt>
</event>
<event>
 6      0 +4.1053447e-01 1.25000000e+02 7.54677100e-03 1.12640300e-01
       21 -1    0    0  502  501 +0.0000000000e+00 +0.0000000000e+00 +1.7389505421e+01 1.7389505421e+01 0.0000000000e+00 0.0000e+00 -1.0000e+00
       21 -1    0    0  501  502 -0.0000000000e+00 -0.0000000000e+00 -2.2463261062e+02 2.2463261062e+02 0.0000000000e+00 0.0000e+00 -1.0000e+00
       25  2    1    2    0    0 +0.0000000000e+00 +0.0000000000e+00 -2.0724310520e+02 2.4202211604e+02 1.2500000000e+02 0.0000e+00 0.0000e+00
      -15  1    3    3    0    0 +5.4863825649e+01 -1.9258280072e+01 -1.4785590004e+02 1.5888815445e+02 1.7770000000e+00 0.0000e+00 -1.0000e+00
       15  1    3    3    0    0 -5.4864981827e+01 +1.9258739307e+01 -5.9383959351e+01 8.3130485550e+01 1.7770000000e+00 0.0000e+00 -1.0000e+00
       22  1    3    3    0    0 +1.1561775491e-03 -4.5923430359e-04 -3.2458084695e-03 3.4760488045e-03 0.0000000000e+00 0.0000e+00 -1.0000e+00
<mgrwt>
<rscale>  2 0.12500000E+03</rscale>
<asrwt>0</asrwt>
<pdfrwt beam="1">  1       21 0.25572802E-02 0.12500000E+03</pdfrwt>
<pdfrwt beam="2">  1       21 0.33034207E-01 0.12500000E+03</pdfrwt>
<totfact> 0.71040114E+06</totfact>
</mgrwt>
</event>
<event>
 6      0 +4.1053447e-01 1.25000000e+02 7.54677100e-03 1.12640300e-01
       21 -1    0    0  502  501 +0.0000000000e+00 +0.0000000000e+00 +2.3747365464e+01 2.3747365464e+01 0.0000000000e+00 0.0000e+00 -1.0000e+00
       21 -1    0    0  501  502 -0.0000000000e+00 -0.0000000000e+00 -1.6449193095e+02 1.6449193095e+02 0.0000000000e+00 0.0000e+00 -1.0000e+00
       25  2    1    2    0    0 +0.0000000000e+00 +0.0000000000e+00 -1.4074456548e+02 1.8823929641e+02 1.2500000000e+02 0.0000e+00 0.0000e+00
      -15  1    3    3    0    0 +5.0553702639e+01 -3.2900951639e+01 -4.5860420358e+01 7.5792383217e+01 1.7770000000e+00 0.0000e+00 -1.0000e+00
       15  1    3    3    0    0 -5.0553405453e+01 +3.2900772546e+01 -9.4883567527e+01 1.1244623939e+02 1.7770000000e+00 0.0000e+00 -1.0000e+00
       22  1    3    3    0    0 -2.9718653474e-04 +1.7909211246e-04 -5.7759117358e-04 6.7379921711e-04 0.0000000000e+00 0.0000e+00 -1.0000e+00
<mgrwt>
<rscale>  2 0.12500000E+03</rscale>
<asrwt>0</asrwt>
<pdfrwt beam="1">  1       21 0.34922595E-02 0.12500000E+03</pdfrwt>
<pdfrwt beam="2">  1       21 0.24189991E-01 0.12500000E+03</pdfrwt>
<totfact> 0.78560743E+06</totfact>
</mgrwt>
</event>
<event>
 6      0 +4.1053447e-01 1.25000000e+02 7.54677100e-03 1.12640300e-01
       21 -1    0    0  502  501 +0.0000000000e+00 +0.0000000000e+00 +1.1456171260e+01 1.1456171260e+01 0.0000000000e+00 0.0000e+00 1.0000e+00
       21 -1    0    0  501  502 -0.0000000000e+00 -0.0000000000e+00 -3.4097342920e+02 3.4097342920e+02 0.0000000000e+00 0.0000e+00 1.0000e+00
       25  2    1    2    0    0 +0.0000000000e+00 +0.0000000000e+00 -3.2951725794e+02 3.5242960046e+02 1.2500000000e+02 0.0000e+00 0.0000e+00
      -15  1    3    3    0    0 +8.3593338259e+00 -4.7077515603e+01 -5.1386367400e+01 7.0213157036e+01 1.7770000000e+00 0.0000e+00 -1.0000e+00
       15  1    3    3    0    0 -8.3593337909e+00 +4.7077515393e+01 -2.7813088931e+02 2.8221644217e+02 1.7770000000e+00 0.0000e+00 -1.0000e+00
       22  1    3    3    0    0 -3.4951755523e-08 +2.0940694088e-07 -1.2312298672e-06 1.2493998071e-06 0.0000000000e+00 0.0000e+00 -1.0000e+00
<mgrwt>
<rscale>  2 0.12500000E+03</rscale>
<asrwt>0</asrwt>
<pdfrwt beam="1">  1       21 0.16847309E-02 0.12500000E+03</pdfrwt>
<pdfrwt beam="2">  1       21 0.50143156E-01 0.12500000E+03</pdfrwt>
<totfact> 0.58280666E+06</totfact>
</mgrwt>
</event>
<event>
 6      0 +4.1053447e-01 1.25000000e+02 7.54677100e-03 1.12640300e-01
       21 -1    0    0  502  501 +0.0000000000e+00 +0.0000000000e+00 +1.7594381655e+02 1.7594381655e+02 0.0000000000e+00 0.0000e+00 1.0000e+00
       21 -1    0    0  501  502 -0.0000000000e+00 -0.0000000000e+00 -2.2201689589e+01 2.2201689589e+01 0.0000000000e+00 0.0000e+00 1.0000e+00
       25  2    1    2    0    0 +0.0000000000e+00 +0.0000000000e+00 +1.5374212696e+02 1.9814550613e+02 1.2500000000e+02 0.0000e+00 0.0000e+00
      -15  1    3    3    0    0 -3.0449751626e+01 -4.5481557908e+01 +1.2163460937e+02 1.3339376076e+02 1.7770000000e+00 0.0000e+00 1.0000e+00
       15  1    3    3    0    0 +3.0765305044e+01 +4.5977741004e+01 +3.0857524572e+01 6.3370349643e+01 1.7770000000e+00 0.0000e+00 1.0000e+00
       22  1    3    3    0    0 -3.1555341768e-01 -4.9618309650e-01 +1.2499930309e+00 1.3813957441e+00 0.0000000000e+00 0.0000e+00 1.0000e+00
<mgrwt>
<rscale>  2 0.12500000E+03</rscale>
<asrwt>0</asrwt>
<pdfrwt beam="1">  1       21 0.25874090E-01 0.12500000E+03</pdfrwt>
<pdfrwt beam="2">  1       21 0.32649544E-02 0.12500000E+03</pdfrwt>
<totfact> 0.77090388E+06</totfact>
</mgrwt>
</event>
<event>
 6      0 +4.1053447e-01 1.25000000e+02 7.54677100e-03 1.12640300e-01
       21 -1    0    0  502  501 +0.0000000000e+00 +0.0000000000e+00 +4.3880825373e+02 4.3880825373e+02 0.0000000000e+00 0.0000e+00 1.0000e+00
       21 -1    0    0  501  502 -0.0000000000e+00 -0.0000000000e+00 -8.9019519729e+00 8.9019519729e+00 0.0000000000e+00 0.0000e+00 1.0000e+00
       25  2    1    2    0    0 +0.0000000000e+00 +0.0000000000e+00 +4.2990630175e+02 4.4771020570e+02 1.2500000000e+02 0.0000e+00 0.0000e+00
      -15  1    3    3    0    0 +3.9146077675e+01 +4.8278095950e+01 +2.3757801138e+02 2.4558024995e+02 1.7770000000e+00 0.0000e+00 -1.0000e+00
       15  1    3    3    0    0 -3.9146072053e+01 -4.8278092472e+01 +1.9232826599e+02 2.0212993049e+02 1.7770000000e+00 0.0000e+00 -1.0000e+00
       22  1    3    3    0    0 -5.6220057578e-06 -3.4781659293e-06 +2.4326668920e-05 2.5208954911e-05 0.0000000000e+00 0.0000e+00 1.0000e+00
<mgrwt>
<rscale>  2 0.12500000E+03</rscale>
<asrwt>0</asrwt>
<pdfrwt beam="1">  1       21 0.64530611E-01 0.12500000E+03</pdfrwt>
<pdfrwt beam="2">  1       21 0.13091109E-02 0.12500000E+03</pdfrwt>
<totfact> 0.49466371E+06</totfact>
</mgrwt>
</event>
<event>
 6      0 +4.1053447e-01 1.25000000e+02 7.54677100e-03 1.12640300e-01
       21 -1    0    0  502  501 +0.0000000000e+00 +0.0000000000e+00 +3.3828940532e+00 3.3828940532e+00 0.0000000000e+00 0.0000e+00 1.0000e+00
       21 -1    0    0  501  502 -0.0000000000e+00 -0.0000000000e+00 -1.1547065733e+03 1.1547065733e+03 0.0000000000e+00 0.0000e+00 1.0000e+00
       25  2    1    2    0    0 +0.0000000000e+00 +0.0000000000e+00 -1.1513236793e+03 1.1580894674e+03 1.2500000000e+02 0.0000e+00 0.0000e+00
      -15  1    3    3    0    0 -5.1935037805e+01 +3.4000874996e+01 -6.4103198581e+02 6.4403297448e+02 1.7770000000e+00 0.0000e+00 -1.0000e+00
       15  1    3    3    0    0 +5.1935037288e+01 -3.4000872420e+01 -5.1029167129e+02 5.1405647057e+02 1.7770000000e+00 0.0000e+00 -1.0000e+00
       22  1    3    3    0    0 +5.1637866495e-07 -2.5755637385e-06 -2.2716007484e-05 2.2867382262e-05 0.0000000000e+00 0.0000e+00 -1.0000e+00
<mgrwt>
<rscale>  2 0.12500000E+03</rscale>
<asrwt>0</asrwt>
<pdfrwt beam="1">  1       21 0.49748468E-03 0.12500000E+03</pdfrwt>
<pdfrwt beam="2">  1       21 0.16980970E+00 0.12500000E+03</pdfrwt>
<totfact> 0.16981467E+06</totfact>
</mgrwt>
</event>
<event>
 6      0 +4.1053447e-01 1.25000000e+02 7.54677100e-03 1.12640300e-01
       21 -1    0    0  502  501 +0.0000000000e+00 +0.0000000000e+00 +8.7292327534e+00 8.7292327534e+00 0.0000000000e+00 0.0000e+00 1.0000e+00
       21 -1    0    0  501  502 -0.0000000000e+00 -0.0000000000e+00 -4.4749064555e+02 4.4749064555e+02 0.0000000000e+00 0.0000e+00 1.0000e+00
       25  2    1    2    0    0 +0.0000000000e+00 +0.0000000000e+00 -4.3876141280e+02 4.5621987830e+02 1.2500000000e+02 0.0000e+00 0.0000e+00
      -15  1    3    3    0    0 +4.7519014459e+01 +8.2832710692e+00 -3.5992422767e+02 3.6314635714e+02 1.7770000000e+00 0.0000e+00 1.0000e+00
       15  1    3    3    0    0 -1.6716145643e+01 -3.0727776758e+00 -1.8878172510e+01 2.5463986611e+01 1.7770000000e+00 0.0000e+00 1.0000e+00
       22  1    3    3    0    0 -3.0802868816e+01 -5.2104933934e+00 -5.9959012708e+01 6.7609534635e+01 0.0000000000e+00 0.0000e+00 1.0000e+00
<mgrwt>
<rscale>  2 0.12500000E+03</rscale>
<asrwt>0</asrwt>
<pdfrwt beam="1">  1       21 0.12837106E-02 0.12500000E+03</pdfrwt>
<pdfrwt beam="2">  1       21 0.65807455E-01 0.12500000E+03</pdfrwt>
<totfact> 0.48761420E+06</totfact>
</mgrwt>
</event>
<event>
 6      0 +4.1053447e-01 1.25000000e+02 7.54677100e-03 1.12640300e-01
       21 -1    0    0  502  501 +0.0000000000e+00 +0.0000000000e+00 +2.3065330041e+02 2.3065330041e+02 0.0000000000e+00 0.0000e+00 1.0000e+00
       21 -1    0    0  501  502 -0.0000000000e+00 -0.0000000000e+00 -1.6935591180e+01 1.6935591180e+01 0.0000000000e+00 0.0000e+00 1.0000e+00
       25  2    1    2    0    0 +0.0000000000e+00 +0.0000000000e+00 +2.1371770923e+02 2.4758889159e+02 1.2500000000e+02 0.0000e+00 0.0000e+00
      -15  1    3    3    0    0 -4.5435010740e+01 +3.9728798204e+01 +1.3881965721e+02 1.5138286747e+02 1.7770000000e+00 0.0000e+00 -1.0000e+00
       15  1    3    3    0    0 +4.5435028648e+01 -3.9728717377e+01 +7.4897911113e+01 9.6205860688e+01 1.7770000000e+00 0.0000e+00 -1.0000e+00
       22  1    3    3    0    0 -1.7907456863e-05 -8.0827402785e-05 +1.4090490143e-04 1.6342563232e-04 0.0000000000e+00 0.0000e+00 -1.0000e+00
<mgrwt>
<rscale>  2 0.12500000E+03</rscale>
<asrwt>0</asrwt>
<pdfrwt beam="1">  1       21 0.33919601E-01 0.12500000E+03</pdfrwt>
<pdfrwt beam="2">  1       21 0.24905283E-02 0.12500000E+03</pdfrwt>
<totfact> 0.70314128E+06</totfact>
</mgrwt>
</event>
<event>
 6      0 +4.1053447e-01 1.25000000e+02 7.54677100e-03 1.12640300e-01
       21 -1    0    0  502  501 +0.0000000000e+00 +0.0000000000e+00 +4.9262670062e+00 4.9262670062e+00 0.0000000000e+00 0.0000e+00 -1.0000e+00
       21 -1    0    0  501  502 -0.0000000000e+00 -0.0000000000e+00 -7.9294321544e+02 7.9294321544e+02 0.0000000000e+00 0.0000e+00 -1.0000e+00
       25  2    1    2    0    0 +0.0000000000e+00 +0.0000000000e+00 -7.8801694843e+02 7.9786948244e+02 1.2500000000e+02 0.0000e+00 0.0000e+00
      -15  1    3    3    0    0 -5.4850541452e+01 +9.2415448289e+00 -2.1244685045e+02 2.1961514074e+02 1.7770000000e+00 0.0000e+00 -1.0000e+00
       15  1    3    3    0    0 +5.4850542241e+01 -9.2415449090e+00 -5.7557009520e+02 5.7825433881e+02 1.7770000000e+00 0.0000e+00 -1.0000e+00
       22  1    3    3    0    0 -7.8859702326e-07 +8.0075557142e-08 -2.8831210002e-06 2.9900976675e-06 0.0000000000e+00 0.0000e+00 -1.0000e+00
<mgrwt>
<rscale>  2 0.12500000E+03</rscale>
<asrwt>0</asrwt>
<pdfrwt beam="1">  1       21 0.72445121E-03 0.12500000E+03</pdfrwt>
<pdfrwt beam="2">  1       21 0.11660927E+00 0.12500000E+03</pdfrwt>
<totfact> 0.28374488E+06</totfact>
</mgrwt>
</event>
<event>
 6      0 +4.1053447e-01 1.25000000e+02 7.54677100e-03 1.12640300e-01
       21 -1    0    0  502  501 +0.0000000000e+00 +0.0000000000e+00 +9.6268940596e+01 9.6268940596e+01 0.0000000000e+00 0.0000e+00 1.0000e+00
       21 -1    0    0  501  502 -0.0000000000e+00 -0.0000000000e+00 -4.0576430735e+01 4.0576430735e+01 0.0000000000e+00 0.0000e+00 1.0000e+00
       25  2    1    2    0    0 +0.0000000000e+00 +0.0000000000e+00 +5.5692509861e+01 1.3684537133e+02 1.2500000000e+02 0.0000e+00 0.0000e+00
      -15  1    3    3    0    0 -6.6409809693e+00 +2.6368049995e+01 +8.9421809909e+01 9.3481519593e+01 1.7770000000e+00 0.0000e+00 -1.0000e+00
       15  1    3    3    0    0 +6.6125674919e+00 -2.6331434307e+01 -3.3666875123e+01 4.3286102747e+01 1.7770000000e+00 0.0000e+00 -1.0000e+00
       22  1    3    3    0    0 +2.8413477441e-02 -3.6615688598e-02 -6.2424925283e-02 7.7748991295e-02 0.0000000000e+00 0.0000e+00 -1.0000e+00
<mgrwt>
<rscale>  2 0.12500000E+03</rscale>
<asrwt>0</asrwt>
<pdfrwt beam="1">  1       21 0.14157197E-01 0.12500000E+03</pdfrwt>
<pdfrwt beam="2">  1       21 0.59671221E-02 0.12500000E+03</pdfrwt>
<totfact> 0.86884780E+06</totfact>
</mgrwt>
</event>
<event>
 6      0 +4.1053447e-01 1.25000000e+02 7.54677100e-03 1.12640300e-01
       21 -1    0    0  502  501 +0.0000000000e+00 +0.0000000000e+00 +1.6980009094e+01 1.6980009094e+01 0.0000000000e+00 0.0000e+00 -1.0000e+00
       21 -1    0    0  501  502 -0.0000000000e+00 -0.0000000000e+00 -2.3004993569e+02 2.3004993569e+02 0.0000000000e+00 0.0000e+00 -1.0000e+00
       25  2    1    2    0    0 +0.0000000000e+00 +0.0000000000e+00 -2.1306992659e+02 2.4702994478e+02 1.2500000000e+02 0.0000e+00 0.0000e+00
      -15  1    3    3    0    0 -5.4831601228e+01 +1.3302635849e+01 -1.5954213202e+02 1.6923449481e+02 1.7770000000e+00 0.0000e+00 -1.0000e+00
       15  1    3    3    0    0 +5.4802766683e+01 -1.3307535840e+01 -5.3503706368e+01 7.7757559570e+01 1.7770000000e+00 0.0000e+00 -1.0000e+00
       22  1    3    3    0    0 +2.8834545333e-02 +4.8999905708e-03 -2.4088193405e-02 3.7890394214e-02 0.0000000000e+00 0.0000e+00 1.0000e+00
<mgrwt>
<rscale>  2 0.12500000E+03</rscale>
<asrwt>0</asrwt>
<pdfrwt beam="1">  1       21 0.24970602E-02 0.12500000E+03</pdfrwt>
<pdfrwt beam="2">  1       21 0.33830872E-01 0.12500000E+03</pdfrwt>
<totfact> 0.70386513E+06</totfact>
</mgrwt>
</event>
<event>
 6      0 +4.1053447e-01 1.25000000e+02 7.54677100e-03 1.12640300e-01
       21 -1    0    0  502  501 +0.0000000000e+00 +0.0000000000e+00 +3.0281599216e+01 3.0281599216e+01 0.0000000000e+00 0.0000e+00 1.0000e+00
       21 -1    0    0  501  502 -0.0000000000e+00 -0.0000000000e+00 -1.2899748036e+02 1.2899748036e+02 0.0000000000e+00 0.0000e+00 1.0000e+00
       25  2    1    2    0    0 +0.0000000000e+00 +0.0000000000e+00 -9.8715881141e+01 1.5927907957e+02 1.2500000000e+02 0.0000e+00 0.0000e+00
      -15  1    3    3    0    0 -2.4808150442e+01 +5.6913596201e+01 -5.8231075807e+01 8.5138814178e+01 1.7770000000e+00 0.0000e+00 -1.0000e+00
       15  1    3    3    0    0 +2.4808150440e+01 -5.6913596194e+01 -4.0484805327e+01 7.4140265385e+01 1.7770000000e+00 0.0000e+00 -1.0000e+00
       22  1    3    3    0    0 +2.2330657794e-09 -6.3653309934e-09 -9.0008172909e-09 1.1248054647e-08 0.0000000000e+00 0.0000e+00 1.0000e+00
<mgrwt>
<rscale>  2 0.12500000E+03</rscale>
<asrwt>0</asrwt>
<pdfrwt beam="1">  1       21 0.44531762E-02 0.12500000E+03</pdfrwt>
<pdfrwt beam="2">  1       21 0.18970218E-01 0.12500000E+03</pdfrwt>
<totfact> 0.83096077E+06</totfact>
</mgrwt>
</event>
<event>
 6      0 +4.1053447e-01 1.25000000e+02 7.54677100e-03 1.12640300e-01
       21 -1    0    0  502  501 +0.0000000000e+00 +0.0000000000e+00 +6.4862468928e+01 6.4862468928e+01 0.0000000000e+00 0.0000e+00 1.0000e+00
       21 -1    0    0  501  502 -0.0000000000e+00 -0.0000000000e+00 -6.0223578667e+01 6.0223578667e+01 0.0000000000e+00 0.0000e+00 1.0000e+00
       25  2    1    2    0    0 +0.0000000000e+00 +0.0000000000e+00 +4.6388902616e+00 1.2508604759e+02 1.2500000000e+02 0.0000e+00 0.0000e+00
      -15  1    3    3    0    0 -1.5889558542e+01 -4.7354990524e+01 -2.7067341447e+01 5.6839879488e+01 1.7770000000e+00 0.0000e+00 -1.0000e+00
       15  1    3    3    0    0 +1.5470525303e+01 +5.2561068139e+01 +2.6562912842e+01 6.0915918320e+01 1.7770000000e+00 0.0000e+00 -1.0000e+00
       22  1    3    3    0    0 +4.1903323941e-01 -5.2060776154e+00 +5.1433188657e+00 7.3302497876e+00 0.0000000000e+00 0.0000e+00 -1.0000e+00
<mgrwt>
<rscale>  2 0.12500000E+03</rscale>
<asrwt>0</asrwt>
<pdfrwt beam="1">  1       21 0.95385984E-02 0.12500000E+03</pdfrwt>
<pdfrwt beam="2">  1       21 0.88564086E-02 0.12500000E+03</pdfrwt>
<totfact> 0.88984026E+06</totfact>
</mgrwt>
</event>
<event>
 6      0 +4.1053447e-01 1.25000000e+02 7.54677100e-03 1.12640300e-01
       21 -1    0    0  502  501 +0.0000000000e+00 +0.0000000000e+00 +1.9840517902e+02 1.9840517902e+02 0.0000000000e+00 0.0000e+00 1.0000e+00
       21 -1    0    0  501  502 -0.0000000000e+00 -0.0000000000e+00 -1.9688246140e+01 1.9688246140e+01 0.0000000000e+00 0.0000e+00 1.0000e+00
       25  2    1    2    0    0 +0.0000000000e+00 +0.0000000000e+00 +1.7871693288e+02 2.1809342516e+02 1.2500000000e+02 0.0000e+00 0.0000e+00
      -15  1    3    3    0    0 +4.9004944749e+01 -3.7378610305e+01 +1.0718967466e+02 1.2365851851e+02 1.7770000000e+00 0.0000e+00 1.0000e+00
       15  1    3    3    0    0 -4.9004944298e+01 +3.7378610022e+01 +7.1527255296e+01 9.4434903675e+01 1.7770000000e+00 0.0000e+00 1.0000e+00
       22  1    3    3    0    0 -4.5132170723e-07 +2.8272505312e-07 +2.9252971502e-06 2.9733799212e-06 0.0000000000e+00 0.0000e+00 -1.0000e+00
<mgrwt>
<rscale>  2 0.12500000E+03</rscale>
<asrwt>0</asrwt>
<pdfrwt beam="1">  1       21 0.29177231E-01 0.12500000E+03</pdfrwt>
<pdfrwt beam="2">  1       21 0.28953304E-02 0.12500000E+03</pdfrwt>
<totfact> 0.74255465E+06</totfact>
</mgrwt>
</event>
<event>
 6      0 +4.1053447e-01 1.25000000e+02 7.54677100e-03 1.12640300e-01
       21 -1    0    0  502  501 +0.0000000000e+00 +0.0000000000e+00 +6.7967295881e+01 6.7967295881e+01 0.0000000000e+00 0.0000e+00 1.0000e+00
       21 -1    0    0  501  502 -0.0000000000e+00 -0.0000000000e+00 -5.7472493930e+01 5.7472493930e+01 0.0000000000e+00 0.0000e+00 1.0000e+00
       25  2    1    2    0    0 +0.0000000000e+00 +0.0000000000e+00 +1.0494801951e+01 1.2543978981e+02 1.2500000000e+02 0.0000e+00 0.0000e+00
      -15  1    3    3    0    0 -4.1110855424e+01 +2.9241755194e+01 +4.2226875224e+01 6.5813747810e+01 1.7770000000e+00 0.0000e+00 -1.0000e+00
       15  1    3    3    0    0 +4.1110850593e+01 -2.9241751409e+01 -3.1732069352e+01 5.9626034720e+01 1.7770000000e+00 0.0000e+00 -1.0000e+00
       22  1    3    3    0    0 +4.8304871949e-06 -3.7849993919e-06 -3.9213038570e-06 7.2826129153e-06 0.0000000000e+00 0.0000e+00 1.0000e+00
<mgrwt>
<rscale>  2 0.12500000E+03</rscale>
<asrwt>0</asrwt>
<pdfrwt beam="1">  1       21 0.99951906E-02 0.12500000E+03</pdfrwt>
<pdfrwt beam="2">  1       21 0.84518373E-02 0.12500000E+03</pdfrwt>
<totfact> 0.88914723E+06</totfact>
</mgrwt>
</event>
<event>
 6      0 +4.1053447e-01 1.25000000e+02 7.54677100e-03 1.12640300e-01
       21 -1    0    0  502  501 +0.0000000000e+00 +0.0000000000e+00 +1.1950980807e+02 1.1950980807e+02 0.0000000000e+00 0.0000e+00 -1.0000e+00
       21 -1    0    0  501  502 -0.0000000000e+00 -0.0000000000e+00 -3.2685601819e+01 3.2685601819e+01 0.0000000000e+00 0.0000e+00 -1.0000e+00
       25  2    1    2    0    0 +0.0000000000e+00 +0.0000000000e+00 +8.6824206248e+01 1.5219540989e+02 1.2500000000e+02 0.0000e+00 0.0000e+00
      -15  1    3    3    0    0 -9.9483903562e+00 +5.2565014058e+01 +4.1282787213e+00 5.3686605292e+01 1.7770000000e+00 0.0000e+00 1.0000e+00
       15  1    3    3    0    0 +9.9229066668e+00 -5.2494184974e+01 +8.2594902530e+01 9.8382819567e+01 1.7770000000e+00 0.0000e+00 1.0000e+00
       22  1    3    3    0    0 +2.5483689335e-02 -7.0829084186e-02 +1.0102499346e-01 1.2598502646e-01 0.0000000000e+00 0.0000e+00 1.0000e+00
<mgrwt>
<rscale>  2 0.12500000E+03</rscale>
<asrwt>0</asrwt>
<pdfrwt beam="1">  1       21 0.17574972E-01 0.12500000E+03</pdfrwt>
<pdfrwt beam="2">  1       21 0.48067062E-02 0.12500000E+03</pdfrwt>
<totfact> 0.84258945E+06</totfact>
</mgrwt>
</event>
<event>
 6      0 +4.1053447e-01 1.25000000e+02 7.54677100e-03 1.12640300e-01
       21 -1    0    0  502  501 +0.0000000000e+00 +0.0000000000e+00 +2.9873475148e+02 2.9873475148e+02 0.0000000000e+00 0.0000e+00 -1.0000e+00
       21 -1    0    0  501  502 -0.0000000000e+00 -0.0000000000e+00 -1.3075981220e+01 1.3075981220e+01 0.0000000000e+00 0.0000e+00 -1.0000e+00
       25  2    1    2    0    0 +0.0000000000e+00 +0.0000000000e+00 +2.8565877026e+02 3.1181073270e+02 1.2500000000e+02 0.0000e+00 0.0000e+00
      -15  1    3    3    0    0 +3.9957220507e+01 +2.7575558213e+01 +5.1432905200e+01 7.0749504223e+01 1.7770000000e+00 0.0000e+00 -1.0000e+00
       15  1    3    3    0    0 -3.5206493035e+01 -2.3235408271e+01 +2.2874478740e+02 2.3260850552e+02 1.7770000000e+00 0.0000e+00 -1.0000e+00
       22  1    3    3    0    0 -4.7507274719e+00 -4.3401499422e+00 +5.4810776585e+00 8.4527229537e+00 0.0000000000e+00 0.0000e+00 1.0000e+00
<mgrwt>
<rscale>  2 0.12500000E+03</rscale>
<asrwt>0</asrwt>
<pdfrwt beam="1">  1       21 0.43931577E-01 0.12500000E+03</pdfrwt>
<pdfrwt beam="2">  1       21 0.19229386E-02 0.12500000E+03</pdfrwt>
<totfact> 0.62612118E+06</totfact>
</mgrwt>
</event>
<event>
 6      0 +4.1053447e-01 1.25000000e+02 7.54677100e-03 1.12640300e-01
       21 -1    0    0  502  501 +0.0000000000e+00 +0.0000000000e+00 +3.6648933095e+01 3.6648933095e+01 0.0000000000e+00 0.0000e+00 1.0000e+00
       21 -1    0    0  501  502 -0.0000000000e+00 -0.0000000000e+00 -1.0658564029e+02 1.0658564029e+02 0.0000000000e+00 0.0000e+00 1.0000e+00
       25  2    1    2    0    0 +0.0000000000e+00 +0.0000000000e+00 -6.9936707198e+01 1.4323457339e+02 1.2500000000e+02 0.0000e+00 0.0000e+00
      -15  1    3    3    0    0 +6.1260974367e+01 -9.7825105409e+00 -4.3426737540e+01 7.5747235958e+01 1.7770000000e+00 0.0000e+00 1.0000e+00
       15  1    3    3    0    0 -6.1260974290e+01 +9.7825105167e+00 -2.6509969607e+01 6.7487337335e+01 1.7770000000e+00 0.0000e+00 1.0000e+00
       22  1    3    3    0    0 -7.6717845032e-08 +2.4177523596e-08 -4.9132563317e-08 9.4255976849e-08 0.0000000000e+00 0.0000e+00 1.0000e+00
<mgrwt>
<rscale>  2 0.12500000E+03</rscale>
<asrwt>0</asrwt>
<pdfrwt beam="1">  1       21 0.53895490E-02 0.12500000E+03</pdfrwt>
<pdfrwt beam="2">  1       21 0.15674359E-01 0.12500000E+03</pdfrwt>
<totfact> 0.85779413E+06</totfact>
</mgrwt>
</event>
<event>
 6      0 +4.1053447e-01 1.25000000e+02 7.54677100e-03 1.12640300e-01
       21 -1    0    0  502  501 +0.0000000000e+00 +0.0000000000e+00 +3.2620483840e+00 3.2620483840e+00 0.0000000000e+00 0.0000e+00 1.0000e+00
       21 -1    0    0  501  502 -0.0000000000e+00 -0.0000000000e+00 -1.1974837710e+03 1.1974837710e+03 0.0000000000e+00 0.0000e+00 1.0000e+00
       25  2    1    2    0    0 +0.0000000000e+00 +0.0000000000e+00 -1.1942217226e+03 1.2007458194e+03 1.2500000000e+02 0.0000e+00 0.0000e+00
      -15  1    3    3    0    0 -5.9830343013e+01 +7.2594341470e+00 -4.3905755012e+02 4.4317836068e+02 1.7770000000e+00 0.0000e+00 -1.0000e+00
       15  1    3    3    0    0 +5.9830341604e+01 -7.2594337357e+00 -7.5516414216e+02 7.5756742835e+02 1.7770000000e+00 0.0000e+00 -1.0000e+00
       22  1    3    3    0    0 +1.4089917948e-06 -4.1130304170e-07 -2.7379257605e-05 2.7418573542e-05 0.0000000000e+00 0.0000e+00 1.0000e+00
<mgrwt>
<rscale>  2 0.12500000E+03</rscale>
<asrwt>0</asrwt>
<pdfrwt beam="1">  1       21 0.47971233E-03 0.12500000E+03</pdfrwt>
<pdfrwt beam="2">  1       21 0.17610080E+00 0.12500000E+03</pdfrwt>
<totfact> 0.16008150E+06</totfact>
</mgrwt>
</event>
<event>
 6      0 +4.1053447e-01 1.25000000e+02 7.54677100e-03 1.12640300e-01
       21 -1    0    0  502  501 +0.0000000000e+00 +0.0000000000e+00 +1.8763957580e+02 1.8763957580e+02 0.0000000000e+00 0.0000e+00 -1.0000e+00
       21 -1    0    0  501  502 -0.0000000000e+00 -0.0000000000e+00 -2.0817836447e+01 2.0817836447e+01 0.0000000000e+00 0.0000e+00 -1.0000e+00
       25  2    1    2    0    0 +0.0000000000e+00 +0.0000000000e+00 +1.6682173936e+02 2.0845741225e+02 1.2500000000e+02 0.0000e+00 0.0000e+00
      -15  1    3    3    0    0 +9.4908099156e+00 -5.5272922153e+01 +3.7499604237e+01 6.7487402107e+01 1.7770000000e+00 0.0000e+00 -1.0000e+00
       15  1    3    3    0    0 -9.4908094539e+00 +5.5272919616e+01 +1.2932212834e+02 1.4097000289e+02 1.7770000000e+00 0.0000e+00 -1.0000e+00
       22  1    3    3    0    0 -4.6167659836e-07 +2.5368209362e-06 +6.7878288182e-06 7.2610760779e-06 0.0000000000e+00 0.0000e+00 1.0000e+00
<mgrwt>
<rscale>  2 0.12500000E+03</rscale>
<asrwt>0</asrwt>
<pdfrwt beam="1">  1       21 0.27594054E-01 0.12500000E+03</pdfrwt>
<pdfrwt beam="2">  1       21 0.30614466E-02 0.12500000E+03</pdfrwt>
<totfact> 0.75602566E+06</totfact>
</mgrwt>
</event>
<event>
 6      0 +4.1053447e-01 1.25000000e+02 7.54677100e-03 1.12640300e-01
       21 -1    0    0  502  501 +0.0000000000e+00 +0.0000000000e+00 +8.0376764376e+02 8.0376764376e+02 0.0000000000e+00 0.0000e+00 1.0000e+00
       21 -1    0    0  501  502 -0.0000000000e+00 -0.0000000000e+00 -4.8599244201e+00 4.8599244201e+00 0.0000000000e+00 0.0000e+00 1.0000e+00
       25  2    1    2    0    0 +0.0000000000e+00 +0.0000000000e+00 +7.9890771934e+02 8.0862756818e+02 1.2500000000e+02 0.0000e+00 0.0000e+00
      -15  1    3    3    0    0 +5.4849685962e+01 -1.8053926951e+01 +5.5371728028e+02 5.5672292619e+02 1.7770000000e+00 0.0000e+00 1.0000e+00
       15  1    3    3    0    0 -5.4849666400e+01 +1.8053817945e+01 +2.4518981766e+02 2.5190401081e+02 1.7770000000e+00 0.0000e+00 1.0000e+00
       22  1    3    3    0    0 -1.9561097330e-05 +1.0900611890e-04 +6.2139814536e-04 6.3118984905e-04 0.0000000000e+00 0.0000e+00 -1.0000e+00
<mgrwt>
<rscale>  2 0.12500000E+03</rscale>
<asrwt>0</asrwt>
<pdfrwt beam="1">  1       21 0.11820103E+00 0.12500000E+03</pdfrwt>
<pdfrwt beam="2">  1       21 0.71469532E-03 0.12500000E+03</pdfrwt>
<totfact> 0.27925428E+06</totfact>
</mgrwt>
</event>
<event>
 6      0 +4.1053447e-01 1.25000000e+02 7.54677100e-03 1.12640300e-01
       21 -1    0    0  502  501 +0.0000000000e+00 +0.0000000000e+00 +6.4164518334e+01 6.4164518334e+01 0.0000000000e+00 0.0000e+00 1.0000e+00
       21 -1    0    0  501  502 -0.0000000000e+00 -0.0000000000e+00 -6.0878661625e+01 6.0878661625e+01 0.0000000000e+00 0.0000e+00 1.0000e+00
       25  2    1    2    0    0 +0.0000000000e+00 +0.0000000000e+00 +3.2858567097e+00 1.2504317996e+02 1.2500000000e+02 0.0000e+00 0.0000e+00
      -15  1    3    3    0    0 +8.8726220099e-02 -4.1080358868e+01 +4.8257545391e+01 6.3399938275e+01 1.7770000000e+00 0.0000e+00 -1.0000e+00
       15  1    3    3    0    0 -1.3710892773e-01 +4.1117584118e+01 -4.5361040874e+01 6.1249132897e+01 1.7770000000e+00 0.0000e+00 -1.0000e+00
       22  1    3    3    0    0 +4.8382707627e-02 -3.7225249464e-02 +3.8935219306e-01 3.9410878681e-01 0.0000000000e+00 0.0000e+00 1.0000e+00
<mgrwt>
<rscale>  2 0.12500000E+03</rscale>
<asrwt>0</asrwt>
<pdfrwt beam="1">  1       21 0.94359586E-02 0.12500000E+03</pdfrwt>
<pdfrwt beam="2">  1       21 0.89527444E-02 0.12500000E+03</pdfrwt>
<totfact> 0.88993112E+06</totfact>
</mgrwt>
</event>
<event>
 6      0 +4.1053447e-01 1.25000000e+02 7.54677100e-03 1.12640300e-01
       21 -1    0    0  502  501 +0.0000000000e+00 +0.0000000000e+00 +2.2610717224e+02 2.2610717224e+02 0.0000000000e+00 0.0000e+00 -1.0000e+00
       21 -1    0    0  501  502 -0.0000000000e+00 -0.0000000000e+00 -1.7276099476e+01 1.7276099476e+01 0.0000000000e+00 0.0000e+00 -1.0000e+00
       25  2    1    2    0    0 +0.0000000000e+00 +0.0000000000e+00 +2.0883107277e+02 2.4338327172e+02 1.2500000000e+02 0.0000e+00 0.0000e+00
      -15  1    3    3    0    0 +3.5489445983e+01 -5.0325282044e+01 +8.4309965765e+01 1.0441964779e+02 1.7770000000e+00 0.0000e+00 1.0000e+00
       15  1    3    3    0    0 -3.5513252782e+01 +5.0355406293e+01 +1.2447939083e+02 1.3890692761e+02 1.7770000000e+00 0.0000e+00 1.0000e+00
       22  1    3    3    0    0 +2.3806798946e-02 -3.0124248675e-02 +4.1716179948e-02 5.6696328838e-02 0.0000000000e+00 0.0000e+00 1.0000e+00
<mgrwt>
<rscale>  2 0.12500000E+03</rscale>
<asrwt>0</asrwt>
<pdfrwt beam="1">  1       21 0.33251053E-01 0.12500000E+03</pdfrwt>
<pdfrwt beam="2">  1       21 0.25406030E-02 0.12500000E+03</pdfrwt>
<totfact> 0.70861550E+06</totfact>
</mgrwt>
</event>
<event>
 6      0 +4.1053447e-01 1.25000000e+02 7.54677100e-03 1.12640300e-01
       21 -1    0    0  502  501 +0.0000000000e+00 +0.0000000000e+00 +4.5305905544e+01 4.5305905544e+01 0.0000000000e+00 0.0000e+00 1.0000e+00
       21 -1    0    0  501  502 -0.0000000000e+00 -0.0000000000e+00 -8.6219444311e+01 8.6219444311e+01 0.0000000000e+00 0.0000e+00 1.0000e+00
       25  2    1    2    0    0 +0.0000000000e+00 +0.0000000000e+00 -4.0913538768e+01 1.3152534986e+02 1.2500000000e+02 0.0000e+00 0.0000e+00
      -15  1    3    3    0    0 +9.0498280299e+00 -1.1874861563e+01 -8.4288116801e+01 8.5618666700e+01 1.7770000000e+00 0.0000e+00 -1.0000e+00
       15  1    3    3    0    0 -9.0496923380e+00 +1.1874690601e+01 +4.3373873129e+01 4.5905945230e+01 1.7770000000e+00 0.0000e+00 -1.0000e+00
       22  1    3    3    0    0 -1.3569194158e-04 +1.7096176949e-04 +7.0490632933e-04 7.3792490317e-04 0.0000000000e+00 0.0000e+00 1.0000e+00
<mgrwt>
<rscale>  2 0.12500000E+03</rscale>
<asrwt>0</asrwt>
<pdfrwt beam="1">  1       21 0.66626333E-02 0.12500000E+03</pdfrwt>
<pdfrwt beam="2">  1       21 0.12679330E-01 0.12500000E+03</pdfrwt>
<totfact> 0.87821358E+06</totfact>
</mgrwt>
</event>
<event>
 6      0 +4.1053447e-01 1.25000000e+02 7.54677100e-03 1.12640300e-01
       21 -1    0    0  502  501 +0.0000000000e+00 +0.0000000000e+00 +4.4395089541e+02 4.4395089541e+02 0.0000000000e+00 0.0000e+00 1.0000e+00
       21 -1    0    0  501  502 -0.0000000000e+00 -0.0000000000e+00 -8.7988334755e+00 8.7988334755e+00 0.0000000000e+00 0.0000e+00 1.0000e+00
       25  2    1    2    0    0 +0.0000000000e+00 +0.0000000000e+00 +4.3515206193e+02 4.5274972888e+02 1.2500000000e+02 0.0000e+00 0.0000e+00
      -15  1    3    3    0    0 -2.2117131727e+01 -5.7541918413e+01 +2.5430894007e+02 2.6168002334e+02 1.7770000000e+00 0.0000e+00 -1.0000e+00
       15  1    3    3    0    0 +2.2117131722e+01 +5.7541918534e+01 +1.8084312140e+02 1.9106970505e+02 1.7770000000e+00 0.0000e+00 -1.0000e+00
       22  1    3    3    0    0 +4.5115071763e-09 -1.2117827302e-07 +4.8523498114e-07 5.0015748967e-07 0.0000000000e+00 0.0000e+00 1.0000e+00
<mgrwt>
<rscale>  2 0.12500000E+03</rscale>
<asrwt>0</asrwt>
<pdfrwt beam="1">  1       21 0.65286881E-01 0.12500000E+03</pdfrwt>
<pdfrwt beam="2">  1       21 0.12939464E-02 0.12500000E+03</pdfrwt>
<totfact> 0.49047488E+06</totfact>
</mgrwt>
</event>
<event>
 6      0 +4.1053447e-01 1.25000000e+02 7.54677100e-03 1.12640300e-01
       21 -1    0    0  502  501 +0.0000000000e+00 +0.0000000000e+00 +2.3736186870e+03 2.3736186870e+03 0.0000000000e+00 0.0000e+00 1.0000e+00
       21 -1    0    0  501  502 -0.0000000000e+00 -0.0000000000e+00 -1.6456939868e+00 1.6456939868e+00 0.0000000000e+00 0.0000e+00 1.0000e+00
       25  2    1    2    0    0 +0.0000000000e+00 +0.0000000000e+00 +2.3719729930e+03 2.3752643810e+03 1.2500000000e+02 0.0000e+00 0.0000e+00
      -15  1    3    3    0    0 +3.6509309242e+01 -4.3766083303e+01 +7.0333907788e+02 7.0564680678e+02 1.7770000000e+00 0.0000e+00 1.0000e+00
       15  1    3    3    0    0 -3.6569212714e+01 +4.3885790055e+01 +1.6662687474e+03 1.6672486216e+03 1.7770000000e+00 0.0000e+00 1.0000e+00
       22  1    3    3    0    0 +5.9903472566e-02 -1.1970675218e-01 +2.3651581914e+00 2.3689430982e+00 0.0000000000e+00 0.0000e+00 1.0000e+00
<mgrwt>
<rscale>  2 0.12500000E+03</rscale>
<asrwt>0</asrwt>
<pdfrwt beam="1">  1       21 0.34905918E+00 0.12500000E+03</pdfrwt>
<pdfrwt beam="2">  1       21 0.24201548E-03 0.12500000E+03</pdfrwt>
<totfact> 0.32567793E+05</totfact>
</mgrwt>
</event>
<event>
 6      0 +4.1053447e-01 1.25000000e+02 7.54677100e-03 1.12640300e-01
       21 -1    0    0  502  501 +0.0000000000e+00 +0.0000000000e+00 +7.7845277723e+01 7.7845277723e+01 0.0000000000e+00 0.0000e+00 -1.0000e+00
       21 -1    0    0  501  502 -0.0000000000e+00 -0.0000000000e+00 -5.0179665540e+01 5.0179665540e+01 0.0000000000e+00 0.0000e+00 -1.0000e+00
       25  2    1    2    0    0 +0.0000000000e+00 +0.0000000000e+00 +2.7665612183e+01 1.2802494326e+02 1.2500000000e+02 0.0000e+00 0.0000e+00
      -15  1    3    3    0    0 +2.2118927257e+01 +5.7225240336e+01 +2.5912494079e+01 6.6622745012e+01 1.7770000000e+00 0.0000e+00 1.0000e+00
       15  1    3    3    0    0 -2.2118227775e+01 -5.7219526035e+01 +1.7525217223e+00 6.1396410489e+01 1.7770000000e+00 0.0000e+00 1.0000e+00
       22  1    3    3    0    0 -6.9948227251e-04 -5.7143016444e-03 +5.9638265847e-04 5.7877621762e-03 0.0000000000e+00 0.0000e+00 -1.0000e+00
<mgrwt>
<rscale>  2 0.12500000E+03</rscale>
<asrwt>0</asrwt>
<pdfrwt beam="1">  1       21 0.11447835E-01 0.12500000E+03</pdfrwt>
<pdfrwt beam="2">  1       21 0.73793625E-02 0.12500000E+03</pdfrwt>
<totfact> 0.88453280E+06</totfact>
</mgrwt>
</event>
<event>
 6      0 +4.1053447e-01 1.25000000e+02 7.54677100e-03 1.12640300e-01
       21 -1    0    0  502  501 +0.0000000000e+00 +0.0000000000e+00 +1.4484091606e+02 1.4484091606e+02 0.0000000000e+00 0.0000e+00 1.0000e+00
       21 -1    0    0  501  502 -0.0000000000e+00 -0.0000000000e+00 -2.6969243956e+01 2.6969243956e+01 0.0000000000e+00 0.0000e+00 1.0000e+00
       25  2    1    2    0    0 +0.0000000000e+00 +0.0000000000e+00 +1.1787167210e+02 1.7181016001e+02 1.2500000000e+02 0.0000e+00 0.0000e+00
      -15  1    3    3    0    0 +3.9118419997e+01 -4.5767829292e+01 +3.6012583331e+01 7.0178407423e+01 1.7770000000e+00 0.0000e+00 1.0000e+00
       15  1    3    3    0    0 -3.9118420012e+01 +4.5767829332e+01 +8.1859088732e+01 1.0163175253e+02 1.7770000000e+00 0.0000e+00 1.0000e+00
       22  1    3    3    0    0 +1.4846525442e-08 -4.0903588313e-08 +4.0607181016e-08 5.9518618974e-08 0.0000000000e+00 0.0000e+00 1.0000e+00
<mgrwt>
<rscale>  2 0.12500000E+03</rscale>
<asrwt>0</asrwt>
<pdfrwt beam="1">  1       21 0.21300134E-01 0.12500000E+03</pdfrwt>
<pdfrwt beam="2">  1       21 0.39660654E-02 0.12500000E+03</pdfrwt>
<totfact> 0.81077893E+06</totfact>
</mgrwt>
</event>
<event>
 6      0 +4.1053447e-01 1.25000000e+02 7.54677100e-03 1.12640300e-01
       21 -1    0    0  502  501 +0.0000000000e+00 +0.0000000000e+00 +6.4271240348e+01 6.4271240348e+01 0.0000000000e+00 0.0000e+00 1.0000e+00
       21 -1    0    0  501  502 -0.0000000000e+00 -0.0000000000e+00 -6.0777572968e+01 6.0777572968e+01 0.0000000000e+00 0.0000e+00 1.0000e+00
       25  2    1    2    0    0 +0.0000000000e+00 +0.0000000000e+00 +3.4936673793e+00 1.2504881332e+02 1.2500000000e+02 0.0000e+00 0.0000e+00
      -15  1    3    3    0    0 -4.8145149560e+01 -7.8422460298e+00 +4.0742793680e+01 6.3581359019e+01 1.7770000000e+00 0.0000e+00 -1.0000e+00
       15  1    3    3    0    0 +4.4162815519e+01 +6.9849038706e+00 -3.3151543542e+01 5.5689547716e+01 1.7770000000e+00 0.0000e+00 -1.0000e+00
       22  1    3    3    0    0 +3.9823340412e+00 +8.5734215922e-01 -4.0975827579e+00 5.7779065803e+00 0.0000000000e+00 0.0000e+00 1.0000e+00
<mgrwt>
<rscale>  2 0.12500000E+03</rscale>
<asrwt>0</asrwt>
<pdfrwt beam="1">  1       21 0.94516530E-02 0.12500000E+03</pdfrwt>
<pdfrwt beam="2">  1       21 0.89378783E-02 0.12500000E+03</pdfrwt>
<totfact> 0.88991918E+06</totfact>
</mgrwt>
</event>
<event>
 6      0 +4.1053447e-01 1.25000000e+02 7.54677100e-03 1.12640300e-01
       21 -1    0    0  502  501 +0.0000000000e+00 +0.0000000000e+00 +1.5662355376e+02 1.5662355376e+02 0.0000000000e+00 0.0000e+00 -1.0000e+00
       21 -1    0    0  501  502 -0.0000000000e+00 -0.0000000000e+00 -2.4940373948e+01 2.4940373948e+01 0.0000000000e+00 0.0000e+00 -1.0000e+00
       25  2    1    2    0    0 +0.0000000000e+00 +0.0000000000e+00 +1.3168317982e+02 1.8156392771e+02 1.2500000000e+02 0.0000e+00 0.0000e+00
      -15  1    3    3    0    0 -1.6197420798e+01 -1.1017005535e+01 +1.5201067674e+02 1.5327796457e+02 1.7770000000e+00 0.0000e+00 -1.0000e+00
       15  1    3    3    0    0 +1.6197420788e+01 +1.1017005536e+01 -2.0327496889e+01 2.8285963127e+01 1.7770000000e+00 0.0000e+00 -1.0000e+00
       22  1    3    3    0    0 +9.9421773581e-09 -1.4888190087e-09 -2.1350151473e-08 2.3598568612e-08 0.0000000000e+00 0.0000e+00 -1.0000e+00
<mgrwt>
<rscale>  2 0.12500000E+03</rscale>
<asrwt>0</asrwt>
<pdfrwt beam="1">  1       21 0.23032875E-01 0.12500000E+03</pdfrwt>
<pdfrwt beam="2">  1       21 0.36677022E-02 0.12500000E+03</pdfrwt>
<totfact> 0.79567619E+06</totfact>
</mgrwt>
</event>
<event>
 6      0 +4.1053447e-01 1.25000000e+02 7.54677100e-03 1.12640300e-01
       21 -1    0    0  502  501 +0.0000000000e+00 +0.0000000000e+00 +4.5083752325e+01 4.5083752325e+01 0.0000000000e+00 0.0000e+00 -1.0000e+00
       21 -1    0    0  501  502 -0.0000000000e+00 -0.0000000000e+00 -8.6644296416e+01 8.6644296416e+01 0.0000000000e+00 0.0000e+00 -1.0000e+00
       25  2    1    2    0    0 +0.0000000000e+00 +0.0000000000e+00 -4.1560544091e+01 1.3172804874e+02 1.2500000000e+02 0.0000e+00 0.0000e+00
      -15  1    3    3    0    0 -2.6406471958e+01 -5.4586467265e+01 -4.9341505383e+00 6.0864503122e+01 1.7770000000e+00 0.0000e+00 -1.0000e+00
       15  1    3    3    0    0 +2.6406077087e+01 +5.4585917562e+01 -3.6626267938e+01 7.0862857233e+01 1.7770000000e+00 0.0000e+00 -1.0000e+00
       22  1    3    3    0    0 +3.9487052997e-04 +5.4970328013e-04 -1.2561511820e-04 6.8838622121e-04 0.0000000000e+00 0.0000e+00 1.0000e+00
<mgrwt>
<rscale>  2 0.12500000E+03</rscale>
<asrwt>0</asrwt>
<pdfrwt beam="1">  1       21 0.66299636E-02 0.12500000E+03</pdfrwt>
<pdfrwt beam="2">  1       21 0.12741808E-01 0.12500000E+03</pdfrwt>
<totfact> 0.87784949E+06</totfact>
</mgrwt>
</event>
<event>
 6      0 +4.1053447e-01 1.25000000e+02 7.54677100e-03 1.12640300e-01
       21 -1    0    0  502  501 +0.0000000000e+00 +0.0000000000e+00 +3.0037032008e+00 3.0037032008e+00 0.0000000000e+00 0.0000e+00 -1.0000e+00
       21 -1    0    0  501  502 -0.0000000000e+00 -0.0000000000e+00 -1.3004780229e+03 1.3004780229e+03 0.0000000000e+00 0.0000e+00 -1.0000e+00
       25  2    1    2    0    0 +0.0000000000e+00 +0.0000000000e+00 -1.2974743197e+03 1.3034817261e+03 1.2500000000e+02 0.0000e+00 0.0000e+00
      -15  1    3    3    0    0 +5.9316586711e+01 +1.4079388894e+01 -5.0670489986e+02 5.1036232220e+02 1.7770000000e+00 0.0000e+00 1.0000e+00
       15  1    3    3    0    0 -5.9296893296e+01 -1.4042166182e+01 -7.9042008847e+02 7.9276754346e+02 1.7770000000e+00 0.0000e+00 1.0000e+00
       22  1    3    3    0    0 -1.9693415238e-02 -3.7222711476e-02 -3.4933156357e-01 3.5186062889e-01 0.0000000000e+00 0.0000e+00 1.0000e+00
<mgrwt>
<rscale>  2 0.12500000E+03</rscale>
<asrwt>0</asrwt>
<pdfrwt beam="1">  1       21 0.44172144E-03 0.12500000E+03</pdfrwt>
<pdfrwt beam="2">  1       21 0.19124660E+00 0.12500000E+03</pdfrwt>
<totfact> 0.13896781E+06</totfact>
</mgrwt>
</event>
<event>
 6      0 +4.1053447e-01 1.25000000e+02 7.54677100e-03 1.12640300e-01
       21 -1    0    0  502  501 +0.0000000000e+00 +0.0000000000e+00 +4.8684011281e+02 4.8684011281e+02 0.0000000000e+00 0.0000e+00 1.0000e+00
       21 -1    0    0  501  502 -0.0000000000e+00 -0.0000000000e+00 -8.0236814864e+00 8.0236814864e+00 0.0000000000e+00 0.0000e+00 1.0000e+00
       25  2    1    2    0    0 +0.0000000000e+00 +0.0000000000e+00 +4.7881643132e+02 4.9486379429e+02 1.2500000000e+02 0.0000e+00 0.0000e+00
      -15  1    3    3    0    0 -4.6737078208e+01 +2.1230878759e+01 +3.8037772214e+02 3.8383000654e+02 1.7770000000e+00 0.0000e+00 1.0000e+00
       15  1    3    3    0    0 +4.6737259155e+01 -2.1231040842e+01 +9.8437475386e+01 1.1103253027e+02 1.7770000000e+00 0.0000e+00 1.0000e+00
       22  1    3    3    0    0 -1.8094733290e-04 +1.6208237282e-04 +1.2338402321e-03 1.2575270777e-03 0.0000000000e+00 0.0000e+00 1.0000e+00
<mgrwt>
<rscale>  2 0.12500000E+03</rscale>
<asrwt>0</asrwt>
<pdfrwt beam="1">  1       21 0.71594114E-01 0.12500000E+03</pdfrwt>
<pdfrwt beam="2">  1       21 0.11799535E-02 0.12500000E+03</pdfrwt>
<totfact> 0.45710441E+06</totfact>
</mgrwt>
</event>
<event>
 6      0 +4.1053447e-01 1.25000000e+02 7.54677100e-03 1.12640300e-01
       21 -1    0    0  502  501 +0.0000000000e+00 +0.0000000000e+00 +3.1011333808e+02 3.1011333808e+02 0.0000000000e+00 0.0000e+00 -1.0000e+00
       21 -1    0    0  501  502 -0.0000000000e+00 -0.0000000000e+00 -1.2596201196e+01 1.2596201196e+01 0.0000000000e+00 0.0000e+00 -1.0000e+00
       25  2    1    2    0    0 +0.0000000000e+00 +0.0000000000e+00 +2.9751713689e+02 3.2270953928e+02 1.2500000000e+02 0.0000e+00 0.0000e+00
      -15  1    3    3    0    0 -2.5919826548e+01 +5.6462036298e+01 +1.6574539282e+02 1.7701551322e+02 1.7770000000e+00 0.0000e+00 1.0000e+00
       15  1    3    3    0    0 +2.5919826569e+01 -5.6462036348e+01 +1.3177174391e+02 1.4569402589e+02 1.7770000000e+00 0.0000e+00 1.0000e+00
       22  1    3    3    0    0 -2.1475117077e-08 +5.0224537506e-08 +1.6510422448e-07 1.7390540464e-07 0.0000000000e+00 0.0000e+00 1.0000e+00
<mgrwt>
<rscale>  2 0.12500000E+03</rscale>
<asrwt>0</asrwt>
<pdfrwt beam="1">  1       21 0.45604898E-01 0.12500000E+03</pdfrwt>
<pdfrwt beam="2">  1       21 0.18523827E-02 0.12500000E+03</pdfrwt>
<totfact> 0.61410353E+06</totfact>
</mgrwt>
</event>
<event>
 6      0 +4.1053447e-01 1.25000000e+02 7.54677100e-03 1.12640300e-01
       21 -1    0    0  502  501 +0.0000000000e+00 +0.0000000000e+00 +1.1156936252e+01 1.1156936252e+01 0.0000000000e+00 0.0000e+00 1.0000e+00
       21 -1    0    0  501  502 -0.0000000000e+00 -0.0000000000e+00 -3.5011851925e+02 3.5011851925e+02 0.0000000000e+00 0.0000e+00 1.0000e+00
       25  2    1    2    0    0 +0.0000000000e+00 +0.0000000000e+00 -3.3896158300e+02 3.6127545550e+02 1.2500000000e+02 0.0000e+00 0.0000e+00
      -15  1    3    3    0    0 +2.0236091941e+01 +9.4416936621e+00 -3.3811735775e+02 3.3885859933e+02 1.7770000000e+00 0.0000e+00 -1.0000e+00
       15  1    3    3    0    0 -2.0236091943e+01 -9.4416936619e+00 -8.4422526769e-01 2.2416856194e+01 1.7770000000e+00 0.0000e+00 -1.0000e+00
       22  1    3    3    0    0 +2.2808179096e-09 -2.3728332239e-10 -1.3111374575e-08 1.3310393569e-08 0.0000000000e+00 0.0000e+00 1.0000e+00
<mgrwt>
<rscale>  2 0.12500000E+03</rscale>
<asrwt>0</asrwt>
<pdfrwt beam="1">  1       21 0.16407262E-02 0.12500000E+03</pdfrwt>
<pdfrwt beam="2">  1       21 0.51488007E-01 0.12500000E+03</pdfrwt>
<totfact> 0.57386811E+06</totfact>
</mgrwt>
</event>
<event>
 6      0 +4.1053447e-01 1.25000000e+02 7.54677100e-03 1.12640300e-01
       21 -1    0    0  502  501 +0.0000000000e+00 +0.0000000000e+00 +3.0276555383e+01 3.0276555383e+01 0.0000000000e+00 0.0000e+00 -1.0000e+00
       21 -1    0    0  501  502 -0.0000000000e+00 -0.0000000000e+00 -1.2901897031e+02 1.2901897031e+02 0.0000000000e+00 0.0000e+00 -1.0000e+00
       25  2    1    2    0    0 +0.0000000000e+00 +0.0000000000e+00 -9.8742414928e+01 1.5929552569e+02 1.2500000000e+02 0.0000e+00 0.0000e+00
      -15  1    3    3    0    0 +3.9127170889e+00 -5.8629200875e+01 -2.2325856554e+01 6.2883178594e+01 1.7770000000e+00 0.0000e+00 1.0000e+00
       15  1    3    3    0    0 -3.9127170886e+00 +5.8629200875e+01 -7.6416558377e+01 9.6412347101e+01 1.7770000000e+00 0.0000e+00 1.0000e+00
       22  1    3    3    0    0 -3.2857311612e-10 -2.7175301613e-10 -3.4122576221e-10 5.4611813301e-10 0.0000000000e+00 0.0000e+00 -1.0000e+00
<mgrwt>
<rscale>  2 0.12500000E+03</rscale>
<asrwt>0</asrwt>
<pdfrwt beam="1">  1       21 0.44524346E-02 0.12500000E+03</pdfrwt>
<pdfrwt beam="2">  1       21 0.18973378E-01 0.12500000E+03</pdfrwt>
<totfact> 0.83093398E+06</totfact>
</mgrwt>
</event>
<event>
 6      0 +4.1053447e-01 1.25000000e+02 7.54677100e-03 1.12640300e-01
       21 -1    0    0  502  501 +0.0000000000e+00 +0.0000000000e+00 +1.4436064759e+02 1.4436064759e+02 0.0000000000e+00 0.0000e+00 -1.0000e+00
       21 -1    0    0  501  502 -0.0000000000e+00 -0.0000000000e+00 -2.7058967006e+01 2.7058967006e+01 0.0000000000e+00 0.0000e+00 -1.0000e+00
       25  2    1    2    0    0 +0.0000000000e+00 +0.0000000000e+00 +1.1730168058e+02 1.7141961459e+02 1.2500000000e+02 0.0000e+00 0.0000e+00
      -15  1    3    3    0    0 +6.2443551349e+01 +1.4866932299e+00 +6.0430850550e+01 8.6927859683e+01 1.7770000000e+00 0.0000e+00 1.0000e+00
       15  1    3    3    0    0 -6.2443552343e+01 -1.4866932442e+00 +5.6870829099e+01 8.4491753547e+01 1.7770000000e+00 0.0000e+00 1.0000e+00
       22  1    3    3    0    0 +9.9431072191e-07 +1.4315251510e-08 +9.3477134354e-07 1.3647916335e-06 0.0000000000e+00 0.0000e+00 1.0000e+00
<mgrwt>
<rscale>  2 0.12500000E+03</rscale>
<asrwt>0</asrwt>
<pdfrwt beam="1">  1       21 0.21229507E-01 0.12500000E+03</pdfrwt>
<pdfrwt beam="2">  1       21 0.39792599E-02 0.12500000E+03</pdfrwt>
<totfact> 0.81139492E+06</totfact>
</mgrwt>
</event>
<event>
 6      0 +4.1053447e-01 1.25000000e+02 7.54677100e-03 1.12640300e-01
       21 -1    0    0  502  501 +0.0000000000e+00 +0.0000000000e+00 +1.5949428154e+00 1.5949428154e+00 0.0000000000e+00 0.0000e+00 -1.0000e+00
       21 -1    0    0  501  502 -0.0000000000e+00 -0.0000000000e+00 -2.4491473690e+03 2.4491473690e+03 0.0000000000e+00 0.0000e+00 -1.0000e+00
       25  2    1    2    0    0 +0.0000000000e+00 +0.0000000000e+00 -2.4475524262e+03 2.4507423119e+03 1.2500000000e+02 0.0000e+00 0.0000e+00
      -15  1    3    3    0    0 +3.3379646078e+01 -2.0019659220e-01 -1.8840766806e+02 1.9135006653e+02 1.7770000000e+00 0.0000e+00 -1.0000e+00
       15  1    3    3    0    0 -3.3360279134e+01 +2.2579399863e-01 -2.2566827815e+03 2.2569300594e+03 1.7770000000e+00 0.0000e+00 -1.0000e+00
       22  1    3    3    0    0 -1.9366944196e-02 -2.5597406435e-02 -2.4619500836e+00 2.4621593206e+00 0.0000000000e+00 0.0000e+00 1.0000e+00
<mgrwt>
<rscale>  2 0.12500000E+03</rscale>
<asrwt>0</asrwt>
<pdfrwt beam="1">  1       21 0.23455023E-03 0.12500000E+03</pdfrwt>
<pdfrwt beam="2">  1       21 0.36016901E+00 0.12500000E+03</pdfrwt>
<totfact> 0.29374765E+05</totfact>
</mgrwt>
</event>
<event>
 6      0 +4.1053447e-01 1.25000000e+02 7.54677100e-03 1.12640300e-01
       21 -1    0    0  502  501 +0.0000000000e+00 +0.0000000000e+00 +3.6535225616e+02 3.6535225616e+02 0.0000000000e+00 0.0000e+00 -1.0000e+00
       21 -1    0    0  501  502 -0.0000000000e+00 -0.0000000000e+00 -1.0691736356e+01 1.0691736356e+01 0.0000000000e+00 0.0000e+00 -1.0000e+00
       25  2    1    2    0    0 +0.0000000000e+00 +0.0000000000e+00 +3.5466051981e+02 3.7604399252e+02 1.2500000000e+02 0.0000e+00 0.0000e+00
      -15  1    3    3    0    0 -2.9485759910e+01 -2.3944699571e+01 +2.8184989247e+01 4.7331913366e+01 1.7770000000e+00 0.0000e+00 1.0000e+00
       15  1    3    3    0    0 +2.9519336489e+01 +2.3987135664e+01 +3.2642375932e+02 3.2863718944e+02 1.7770000000e+00 0.0000e+00 1.0000e+00
       22  1    3    3    0    0 -3.3576579822e-02 -4.2436093090e-02 +5.1771257397e-02 7.4889730950e-02 0.0000000000e+00 0.0000e+00 -1.0000e+00
<mgrwt>
<rscale>  2 0.12500000E+03</rscale>
<asrwt>0</asrwt>
<pdfrwt beam="1">  1       21 0.53728265E-01 0.12500000E+03</pdfrwt>
<pdfrwt beam="2">  1       21 0.15723144E-02 0.12500000E+03</pdfrwt>
<totfact> 0.55928277E+06</totfact>
</mgrwt>
</event>
<event>
 6      0 +4.1053447e-01 1.25000000e+02 7.54677100e-03 1.12640300e-01
       21 -1    0    0  502  501 +0.0000000000e+00 +0.0000000000e+00 +5.5897423490e+01 5.5897423490e+01 0.0000000000e+00 0.0000e+00 -1.0000e+00
       21 -1    0    0  501  502 -0.0000000000e+00 -0.0000000000e+00 -6.9882469640e+01 6.9882469640e+01 0.0000000000e+00 0.0000e+00 -1.0000e+00
       25  2    1    2    0    0 +0.0000000000e+00 +0.0000000000e+00 -1.3985046149e+01 1.2577989313e+02 1.2500000000e+02 0.0000e+00 0.0000e+00
      -15  1    3    3    0    0 -1.0317017494e+01 -5.6835310733e+01 +1.6954345819e+01 6.0227078355e+01 1.7770000000e+00 0.0000e+00 1.0000e+00
       15  1    3    3    0    0 +1.0315845292e+01 +5.6834274917e+01 -3.0939555908e+01 6.5551241927e+01 1.7770000000e+00 0.0000e+00 1.0000e+00
       22  1    3    3    0    0 +1.1722015839e-03 +1.0358167118e-03 +1.6394024505e-04 1.5728474871e-03 0.0000000000e+00 0.0000e+00 1.0000e+00
<mgrwt>
<rscale>  2 0.12500000E+03</rscale>
<asrwt>0</asrwt>
<pdfrwt beam="1">  1       21 0.82202094E-02 0.12500000E+03</pdfrwt>
<pdfrwt beam="2">  1       21 0.10276834E-01 0.12500000E+03</pdfrwt>
<totfact> 0.88851772E+06</totfact>
</mgrwt>
</event>
<event>
 6      0 +4.1053447e-01 1.25000000e+02 7.54677100e-03 1.12640300e-01
       21 -1    0    0  502  501 +0.0000000000e+00 +0.0000000000e+00 +2.9812732075e+02 2.9812732075e+02 0.0000000000e+00 0.0000e+00 1.0000e+00
       21 -1    0    0  501  502 -0.0000000000e+00 -0.0000000000e+00 -1.3102623370e+01 1.3102623370e+01 0.0000000000e+00 0.0000e+00 1.0000e+00
       25  2    1    2    0    0 +0.0000000000e+00 +0.0000000000e+00 +2.8502469738e+02 3.1122994412e+02 1.2500000000e+02 0.0000e+00 0.0000e+00
      -15  1    3    3    0    0 +3.5371702863e+01 +3.1541928573e+01 +2.4385188391e+02 2.4842091224e+02 1.7770000000e+00 0.0000e+00 -1.0000e+00
       15  1    3    3    0    0 -3.5372922943e+01 -3.1543380090e+01 +4.1164472034e+01 6.2800477640e+01 1.7770000000e+00 0.0000e+00 -1.0000e+00
       22  1    3    3    0    0 +1.2200798121e-03 +1.4515176186e-03 +8.3414335315e-03 8.5542393879e-03 0.0000000000e+00 0.0000e+00 -1.0000e+00
<mgrwt>
<rscale>  2 0.12500000E+03</rscale>
<asrwt>0</asrwt>
<pdfrwt beam="1">  1       21 0.43842249E-01 0.12500000E+03</pdfrwt>
<pdfrwt beam="2">  1       21 0.19268566E-02 0.12500000E+03</pdfrwt>
<totfact> 0.62677030E+06</totfact>
</mgrwt>
</event>
<event>
 6      0 +4.1053447e-01 1.25000000e+02 7.54677100e-03 1.12640300e-01
       21 -1    0    0  502  501 +0.0000000000e+00 +0.0000000000e+00 +2.5428373940e+01 2.5428373940e+01 0.0000000000e+00 0.0000e+00 1.0000e+00
       21 -1    0    0  501  502 -0.0000000000e+00 -0.0000000000e+00 -1.5361776609e+02 1.5361776609e+02 0.0000000000e+00 0.0000e+00 1.0000e+00
       25  2    1    2    0    0 +0.0000000000e+00 +0.0000000000e+00 -1.2818939215e+02 1.7904614003e+02 1.2500000000e+02 0.0000e+00 0.0000e+00
      -15  1    3    3    0    0 +6.2760902392e+00 +4.9705547293e+01 -1.1752690732e+02 1.2777230691e+02 1.7770000000e+00 0.0000e+00 1.0000e+00
       15  1    3    3    0    0 -6.2766149669e+00 -4.9715258918e+01 -1.0653694960e+01 5.1260723854e+01 1.7770000000e+00 0.0000e+00 1.0000e+00
       22  1    3    3    0    0 +5.2472772471e-04 +9.7116254540e-03 -8.7898715499e-03 1.3109265807e-02 0.0000000000e+00 0.0000e+00 -1.0000e+00
<mgrwt>
<rscale>  2 0.12500000E+03</rscale>
<asrwt>0</asrwt>
<pdfrwt beam="1">  1       21 0.37394667E-02 0.12500000E+03</pdfrwt>
<pdfrwt beam="2">  1       21 0.22590848E-01 0.12500000E+03</pdfrwt>
<totfact> 0.79952610E+06</totfact>
</mgrwt>
</event>
<event>
 6      0 +4.1053447e-01 1.25000000e+02 7.54677100e-03 1.12640300e-01
       21 -1    0    0  502  501 +0.0000000000e+00 +0.0000000000e+00 +3.8759960862e+01 3.8759960862e+01 0.0000000000e+00 0.0000e+00 1.0000e+00
       21 -1    0    0  501  502 -0.0000000000e+00 -0.0000000000e+00 -1.0078054552e+02 1.0078054552e+02 0.0000000000e+00 0.0000e+00 1.0000e+00
       25  2    1    2    0    0 +0.0000000000e+00 +0.0000000000e+00 -6.2020584657e+01 1.3954050638e+02 1.2500000000e+02 0.0000e+00 0.0000e+00
      -15  1    3    3    0    0 -1.3445535756e+01 -5.6805164345e+01 -5.5859043716e+01 8.0814600301e+01 1.7770000000e+00 0.0000e+00 -1.0000e+00
       15  1    3    3    0    0 +1.3445515179e+01 +5.6804855784e+01 -6.1615300984e+00 5.8725596644e+01 1.7770000000e+00 0.0000e+00 -1.0000e+00
       22  1    3    3    0    0 +2.0577168469e-05 +3.0856096319e-04 -1.0843655674e-05 3.0943637914e-04 0.0000000000e+00 0.0000e+00 -1.0000e+00
<mgrwt>
<rscale>  2 0.12500000E+03</rscale>
<asrwt>0</asrwt>
<pdfrwt beam="1">  1       21 0.56999943E-02 0.12500000E+03</pdfrwt>
<pdfrwt beam="2">  1       21 0.14820668E-01 0.12500000E+03</pdfrwt>
<totfact> 0.86419714E+06</totfact>
</mgrwt>
</event>
<event>
 6      0 +4.1053447e-01 1.25000000e+02 7.54677100e-03 1.12640300e-01
       21 -1    0    0  502  501 +0.0000000000e+00 +0.0000000000e+00 +3.1134206896e+02 3.1134206896e+02 0.0000000000e+00 0.0000e+00 1.0000e+00
       21 -1    0    0  501  502 -0.0000000000e+00 -0.0000000000e+00 -1.2546489503e+01 1.2546489503e+01 0.0000000000e+00 0.0000e+00 1.0000e+00
       25  2    1    2    0    0 +0.0000000000e+00 +0.0000000000e+00 +2.9879557946e+02 3.2388855846e+02 1.2500000000e+02 0.0000e+00 0.0000e+00
      -15  1    3    3    0    0 +4.7754213584e+01 -2.5972107768e+01 +2.2918024423e+02 2.3554565878e+02 1.7770000000e+00 0.0000e+00 1.0000e+00
       15  1    3    3    0    0 -4.7754212259e+01 +2.5972107045e+01 +6.9615333282e+01 8.8342897223e+01 1.7770000000e+00 0.0000e+00 1.0000e+00
       22  1    3    3    0    0 -1.3246611209e-06 +7.2346784843e-07 +1.9818075641e-06 2.4911230468e-06 0.0000000000e+00 0.0000e+00 -1.0000e+00
<mgrwt>
<rscale>  2 0.12500000E+03</rscale>
<asrwt>0</asrwt>
<pdfrwt beam="1">  1       21 0.45785593E-01 0.12500000E+03</pdfrwt>
<pdfrwt beam="2">  1       21 0.18450722E-02 0.12500000E+03</pdfrwt>
<totfact> 0.61282169E+06</totfact>
</mgrwt>
</event>
<event>
 6      0 +4.1053447e-01 1.25000000e+02 7.54677100e-03 1.12640300e-01
       21 -1    0    0  502  501 +0.0000000000e+00 +0.0000000000e+00 +6.5976580466e+00 6.5976580466e+00 0.0000000000e+00 0.0000e+00 1.0000e+00
       21 -1    0    0  501  502 -0.0000000000e+00 -0.0000000000e+00 -5.9206615020e+02 5.9206615020e+02 0.0000000000e+00 0.0000e+00 1.0000e+00
       25  2    1    2    0    0 +0.0000000000e+00 +0.0000000000e+00 -5.8546849215e+02 5.9866380824e+02 1.2500000000e+02 0.0000e+00 0.0000e+00
      -15  1    3    3    0    0 -4.8233648623e+01 +3.2037966373e+01 -4.0507048688e+02 4.0919209819e+02 1.7770000000e+00 0.0000e+00 1.0000e+00
       15  1    3    3    0    0 +4.8233663297e+01 -3.2038015499e+01 -1.8039749926e+02 1.8947120145e+02 1.7770000000e+00 0.0000e+00 1.0000e+00
       22  1    3    3    0    0 -1.4674036912e-05 +4.9125086301e-05 -5.0608431400e-04 5.0867468419e-04 0.0000000000e+00 0.0000e+00 1.0000e+00
<mgrwt>
<rscale>  2 0.12500000E+03</rscale>
<asrwt>0</asrwt>
<pdfrwt beam="1">  1       21 0.97024361E-03 0.12500000E+03</pdfrwt>
<pdfrwt beam="2">  1       21 0.87068571E-01 0.12500000E+03</pdfrwt>
<totfact> 0.38610271E+06</totfact>
</mgrwt>
</event>
<event>
 6      0 +4.1053447e-01 1.25000000e+02 7.54677100e-03 1.12640300e-01
       21 -1    0    0  502  501 +0.0000000000e+00 +0.0000000000e+00 +8.5930423426e+00 8.5930423426e+00 0.0000000000e+00 0.0000e+00 1.0000e+00
       21 -1    0    0  501  502 -0.0000000000e+00 -0.0000000000e+00 -4.5458288744e+02 4.5458288744e+02 0.0000000000e+00 0.0000e+00 1.0000e+00
       25  2    1    2    0    0 +0.0000000000e+00 +0.0000000000e+00 -4.4598984510e+02 4.6317592979e+02 1.2500000000e+02 0.0000e+00 0.0000e+00
      -15  1    3    3    0    0 +1.1487091855e+01 -4.9818945042e+01 -2.2767921949e+02 2.3335566263e+02 1.7770000000e+00 0.0000e+00 -1.0000e+00
       15  1    3    3    0    0 -1.2395354811e+01 +5.9885884463e+01 -1.7642053678e+02 1.8672795052e+02 1.7770000000e+00 0.0000e+00 -1.0000e+00
       22  1    3    3    0    0 +9.0826295613e-01 -1.0066939421e+01 -4.1890088759e+01 4.3092316567e+01 0.0000000000e+00 0.0000e+00 -1.0000e+00
<mgrwt>
<rscale>  2 0.12500000E+03</rscale>
<asrwt>0</asrwt>
<pdfrwt beam="1">  1       21 0.12636828E-02 0.12500000E+03</pdfrwt>
<pdfrwt beam="2">  1       21 0.66850419E-01 0.12500000E+03</pdfrwt>
<totfact> 0.48193776E+06</totfact>
</mgrwt>
</event>
<event>
 6      0 +4.1053447e-01 1.25000000e+02 7.54677100e-03 1.12640300e-01
       21 -1    0    0  502  501 +0.0000000000e+00 +0.0000000000e+00 +2.1775000458e+02 2.1775000458e+02 0.0000000000e+00 0.0000e+00 1.0000e+00
       21 -1    0    0  501  502 -0.0000000000e+00 -0.0000000000e+00 -1.7939150025e+01 1.7939150025e+01 0.0000000000e+00 0.0000e+00 1.0000e+00
       25  2    1    2    0    0 +0.0000000000e+00 +0.0000000000e+00 +1.9981085455e+02 2.3568915460e+02 1.2500000000e+02 0.0000e+00 0.0000e+00
      -15  1    3    3    0    0 -5.6402443150e+01 +1.6240249751e+01 +5.9548794073e+01 8.3631321344e+01 1.7770000000e+00 0.0000e+00 -1.0000e+00
       15  1    3    3    0    0 +5.6402443128e+01 -1.6240249598e+01 +1.4026206005e+02 1.5205783280e+02 1.7770000000e+00 0.0000e+00 -1.0000e+00
       22  1    3    3    0    0 +2.1716894307e-08 -1.5272682823e-07 +4.2964347861e-07 4.5649822154e-07 0.0000000000e+00 0.0000e+00 -1.0000e+00
<mgrwt>
<rscale>  2 0.12500000E+03</rscale>
<asrwt>0</asrwt>
<pdfrwt beam="1">  1       21 0.32022058E-01 0.12500000E+03</pdfrwt>
<pdfrwt beam="2">  1       21 0.26381104E-02 0.12500000E+03</pdfrwt>
<totfact> 0.71877645E+06</totfact>
</mgrwt>
</event>
<event>
 6      0 +4.1053447e-01 1.25000000e+02 7.54677100e-03 1.12640300e-01
       21 -1    0    0  502  501 +0.0000000000e+00 +0.0000000000e+00 +4.0204288403e+01 4.0204288403e+01 0.0000000000e+00 0.0000e+00 -1.0000e+00
       21 -1    0    0  501  502 -0.0000000000e+00 -0.0000000000e+00 -9.7160033298e+01 9.7160033298e+01 0.0000000000e+00 0.0000e+00 -1.0000e+00
       25  2    1    2    0    0 +0.0000000000e+00 +0.0000000000e+00 -5.6955744895e+01 1.3736432170e+02 1.2500000000e+02 0.0000e+00 0.0000e+00
      -15  1    3    3    0    0 +3.1244337650e+01 -3.6161835803e+01 +1.5741735410e+01 5.0347263744e+01 1.7770000000e+00 0.0000e+00 1.0000e+00
       15  1    3    3    0    0 -3.1244337647e+01 +3.6161835795e+01 -7.2697480292e+01 8.7017057942e+01 1.7770000000e+00 0.0000e+00 1.0000e+00
       22  1    3    3    0    0 -3.0486048000e-09 +7.6743216475e-09 -1.2908300807e-08 1.5323623387e-08 0.0000000000e+00 0.0000e+00 -1.0000e+00
<mgrwt>
<rscale>  2 0.12500000E+03</rscale>
<asrwt>0</asrwt>
<pdfrwt beam="1">  1       21 0.59123954E-02 0.12500000E+03</pdfrwt>
<pdfrwt beam="2">  1       21 0.14288240E-01 0.12500000E+03</pdfrwt>
<totfact> 0.86795009E+06</totfact>
</mgrwt>
</event>
<event>
 6      0 +4.1053447e-01 1.25000000e+02 7.54677100e-03 1.12640300e-01
       21 -1    0    0  502  501 +0.0000000000e+00 +0.0000000000e+00 +8.4974353711e+01 8.4974353711e+01 0.0000000000e+00 0.0000e+00 1.0000e+00
       21 -1    0    0  501  502 -0.0000000000e+00 -0.0000000000e+00 -4.5969752395e+01 4.5969752395e+01 0.0000000000e+00 0.0000e+00 1.0000e+00
       25  2    1    2    0    0 +0.0000000000e+00 +0.0000000000e+00 +3.9004601316e+01 1.3094410611e+02 1.2500000000e+02 0.0000e+00 0.0000e+00
      -15  1    3    3    0    0 -3.6363150335e+01 +2.9225281273e+01 -9.8993876295e+00 4.7723698224e+01 1.7770000000e+00 0.0000e+00 -1.0000e+00
       15  1    3    3    0    0 +4.2933163336e+01 -3.3617735603e+01 +5.1375348591e+01 7.4939928162e+01 1.7770000000e+00 0.0000e+00 -1.0000e+00
       22  1    3    3    0    0 -6.5700130009e+00 +4.3924543299e+00 -2.4713596469e+00 8.2804797190e+00 0.0000000000e+00 0.0000e+00 -1.0000e+00
<mgrwt>
<rscale>  2 0.12500000E+03</rscale>
<asrwt>0</asrwt>
<pdfrwt beam="1">  1       21 0.12496228E-01 0.12500000E+03</pdfrwt>
<pdfrwt beam="2">  1       21 0.67602577E-02 0.12500000E+03</pdfrwt>
<totfact> 0.87926192E+06</totfact>
</mgrwt>
</event>
<event>
 6      0 +4.1053447e-01 1.25000000e+02 7.54677100e-03 1.12640300e-01
       21 -1    0    0  502  501 +0.0000000000e+00 +0.0000000000e+00 +1.7490940082e+02 1.7490940082e+02 0.0000000000e+00 0.0000e+00 -1.0000e+00
       21 -1    0    0  501  502 -0.0000000000e+00 -0.0000000000e+00 -2.2332990575e+01 2.2332990575e+01 0.0000000000e+00 0.0000e+00 -1.0000e+00
       25  2    1    2    0    0 +0.0000000000e+00 +0.0000000000e+00 +1.5257641025e+02 1.9724239140e+02 1.2500000000e+02 0.0000e+00 0.0000e+00
      -15  1    3    3    0    0 -4.3092159151e+01 +1.6026216261e+01 +1.4303556161e+02 1.5025346386e+02 1.7770000000e+00 0.0000e+00 -1.0000e+00
       15  1    3    3    0    0 +4.3092159008e+01 -1.6026216204e+01 +9.5408485287e+00 4.6988927349e+01 1.7770000000e+00 0.0000e+00 -1.0000e+00
       22  1    3    3    0    0 +1.4338803995e-07 -5.7039855122e-08 +1.1292895245e-07 1.9122401359e-07 0.0000000000e+00 0.0000e+00 1.0000e+00
<mgrwt>
<rscale>  2 0.12500000E+03</rscale>
<asrwt>0</asrwt>
<pdfrwt beam="1">  1       21 0.25721970E-01 0.12500000E+03</pdfrwt>
<pdfrwt beam="2">  1       21 0.32842634E-02 0.12500000E+03</pdfrwt>
<totfact> 0.77223282E+06</totfact>
</mgrwt>
</event>
<event>
 6      0 +4.1053447e-01 1.25000000e+02 7.54677100e-03 1.12640300e-01
       21 -1    0    0  502  501 +0.0000000000e+00 +0.0000000000e+00 +6.3565519274e+02 6.3565519274e+02 0.0000000000e+00 0.0000e+00 1.0000e+00
       21 -1    0    0  501  502 -0.0000000000e+00 -0.0000000000e+00 -6.1452341530e+00 6.1452341530e+00 0.0000000000e+00 0.0000e+00 1.0000e+00
       25  2    1    2    0    0 +0.0000000000e+00 +0.0000000000e+00 +6.2950995859e+02 6.4180042690e+02 1.2500000000e+02 0.0000e+00 0.0000e+00
      -15  1    3    3    0    0 +8.3096250596e+00 +6.1857723533e+01 +3.2896618775e+02 3.3483927225e+02 1.7770000000e+00 0.0000e+00 -1.0000e+00
       15  1    3    3    0    0 -8.3095416933e+00 -6.1857621904e+01 +3.0054346858e+02 3.0696082504e+02 1.7770000000e+00 0.0000e+00 -1.0000e+00
       22  1    3    3    0    0 -8.3366299578e-05 -1.0162848995e-04 +3.0215939006e-04 3.2951265056e-04 0.0000000000e+00 0.0000e+00 1.0000e+00
<mgrwt>
<rscale>  2 0.12500000E+03</rscale>
<asrwt>0</asrwt>
<pdfrwt beam="1">  1       21 0.93478659E-01 0.12500000E+03</pdfrwt>
<pdfrwt beam="2">  1       21 0.90371135E-03 0.12500000E+03</pdfrwt>
<totfact> 0.36009615E+06</totfact>
</mgrwt>
</event>
<event>
 6      0 +4.1053447e-01 1.25000000e+02 7.54677100e-03 1.12640300e-01
       21 -1    0    0  502  501 +0.0000000000e+00 +0.0000000000e+00 +2.3405723974e+01 2.3405723974e+01 0.0000000000e+00 0.0000e+00 -1.0000e+00
       21 -1    0    0  501  502 -0.0000000000e+00 -0.0000000000e+00 -1.6689293629e+02 1.6689293629e+02 0.0000000000e+00 0.0000e+00 -1.0000e+00
       25  2    1    2    0    0 +0.0000000000e+00 +0.0000000000e+00 -1.4348721231e+02 1.9029866026e+02 1.2500000000e+02 0.0000e+00 0.0000e+00
      -15  1    3    3    0    0 -4.8013911398e+01 -3.9392893416e+01 -8.2063820194e+01 1.0293087026e+02 1.7770000000e+00 0.0000e+00 -1.0000e+00
       15  1    3    3    0    0 +4.8012756001e+01 +3.9392227371e+01 -6.1422341093e+01 8.7366091994e+01 1.7770000000e+00 0.0000e+00 -1.0000e+00
       22  1    3    3    0    0 +1.1553966170e-03 +6.6604509802e-04 -1.0510214949e-03 1.6979998815e-03 0.0000000000e+00 0.0000e+00 1.0000e+00
<mgrwt>
<rscale>  2 0.12500000E+03</rscale>
<asrwt>0</asrwt>
<pdfrwt beam="1">  1       21 0.34420184E-02 0.12500000E+03</pdfrwt>
<pdfrwt beam="2">  1       21 0.24543078E-01 0.12500000E+03</pdfrwt>
<totfact> 0.78253052E+06</totfact>
</mgrwt>
</event>
<event>
 6      0 +4.1053447e-01 1.25000000e+02 7.54677100e-03 1.12640300e-01
       21 -1    0    0  502  501 +0.0000000000e+00 +0.0000000000e+00 +2.6638527838e+02 2.6638527838e+02 0.0000000000e+00 0.0000e+00 -1.0000e+00
       21 -1    0    0  501  502 -0.0000000000e+00 -0.0000000000e+00 -1.4663910948e+01 1.4663910948e+01 0.0000000000e+00 0.0000e+00 -1.0000e+00
       25  2    1    2    0    0 +0.0000000000e+00 +0.0000000000e+00 +2.5172136743e+02 2.8104918933e+02 1.2500000000e+02 0.0000e+00 0.0000e+00
      -15  1    3    3    0    0 +1.0164021999e+01 +4.5942464647e+01 +3.3455428109e+01 5.7761932101e+01 1.7770000000e+00 0.0000e+00 1.0000e+00
       15  1    3    3    0    0 -1.0163979905e+01 -4.5942389447e+01 +2.1826495008e+02 2.2328626424e+02 1.7770000000e+00 0.0000e+00 1.0000e+00
       22  1    3    3    0    0 -4.2093487678e-05 -7.5200052084e-05 +9.8922438127e-04 9.9297119094e-04 0.0000000000e+00 0.0000e+00 1.0000e+00
<mgrwt>
<rscale>  2 0.12500000E+03</rscale>
<asrwt>0</asrwt>
<pdfrwt beam="1">  1       21 0.39174303E-01 0.12500000E+03</pdfrwt>
<pdfrwt beam="2">  1       21 0.21564577E-02 0.12500000E+03</pdfrwt>
<totfact> 0.66166344E+06</totfact>
</mgrwt>
</event>
<event>
 6      0 +4.1053447e-01 1.25000000e+02 7.54677100e-03 1.12640300e-01
       21 -1    0    0  502  501 +0.0000000000e+00 +0.0000000000e+00 +4.4758404189e+02 4.4758404189e+02 0.0000000000e+00 0.0000e+00 -1.0000e+00
       21 -1    0    0  501  502 -0.0000000000e+00 -0.0000000000e+00 -8.7274112444e+00 8.7274112444e+00 0.0000000000e+00 0.0000e+00 -1.0000e+00
       25  2    1    2    0    0 +0.0000000000e+00 +0.0000000000e+00 +4.3885663064e+02 4.5631145313e+02 1.2500000000e+02 0.0000e+00 0.0000e+00
      -15  1    3    3    0    0 -3.3672166793e+01 -3.8456202721e+01 +1.8890372413e+02 1.9570505631e+02 1.7770000000e+00 0.0000e+00 -1.0000e+00
       15  1    3    3    0    0 -6.5571952563e+00 +3.1575322107e+01 +9.3660832964e+01 9.9073241273e+01 1.7770000000e+00 0.0000e+00 -1.0000e+00
       22  1    3    3    0    0 +4.0229362050e+01 +6.8808806143e+00 +1.5629207353e+02 1.6153315554e+02 0.0000000000e+00 0.0000e+00 -1.0000e+00
<mgrwt>
<rscale>  2 0.12500000E+03</rscale>
<asrwt>0</asrwt>
<pdfrwt beam="1">  1       21 0.65821167E-01 0.12500000E+03</pdfrwt>
<pdfrwt beam="2">  1       21 0.12834431E-02 0.12500000E+03</pdfrwt>
<totfact> 0.48753910E+06</totfact>
</mgrwt>
</event>
<event>
 6      0 +4.1053447e-01 1.25000000e+02 7.54677100e-03 1.12640300e-01
       21 -1    0    0  502  501 +0.0000000000e+00 +0.0000000000e+00 +7.2554036243e+02 7.2554036243e+02 0.0000000000e+00 0.0000e+00 -1.0000e+00
       21 -1    0    0  501  502 -0.0000000000e+00 -0.0000000000e+00 -5.3839182522e+00 5.3839182522e+00 0.0000000000e+00 0.0000e+00 -1.0000e+00
       25  2    1    2    0    0 +0.0000000000e+00 +0.0000000000e+00 +7.2015644417e+02 7.3092428068e+02 1.2500000000e+02 0.0000e+00 0.0000e+00
      -15  1    3    3    0    0 -6.2307435780e+01 +3.0341110121e+00 +3.7999376963e+02 3.8508420516e+02 1.7770000000e+00 0.0000e+00 -1.0000e+00
       15  1    3    3    0    0 +6.2307726976e+01 -3.0333854698e+00 +3.4015937826e+02 3.4583668778e+02 1.7770000000e+00 0.0000e+00 -1.0000e+00
       22  1    3    3    0    0 -2.9119605711e-04 -7.2554230874e-04 +3.2960998613e-03 3.3875479452e-03 0.0000000000e+00 0.0000e+00 1.0000e+00
<mgrwt>
<rscale>  2 0.12500000E+03</rscale>
<asrwt>0</asrwt>
<pdfrwt beam="1">  1       21 0.10669704E+00 0.12500000E+03</pdfrwt>
<pdfrwt beam="2">  1       21 0.79175318E-03 0.12500000E+03</pdfrwt>
<totfact> 0.31390131E+06</totfact>
</mgrwt>
</event>
<event>
 6      0 +4.1053447e-01 1.25000000e+02 7.54677100e-03 1.12640300e-01
       21 -1    0    0  502  501 +0.0000000000e+00 +0.0000000000e+00 +6.7111645969e+00 6.7111645969e+00 0.0000000000e+00 0.0000e+00 -1.0000e+00
       21 -1    0    0  501  502 -0.0000000000e+00 -0.0000000000e+00 -5.8205248040e+02 5.8205248040e+02 0.0000000000e+00 0.0000e+00 -1.0000e+00
       25  2    1    2    0    0 +0.0000000000e+00 +0.0000000000e+00 -5.7534131580e+02 5.8876364499e+02 1.2500000000e+02 0.0000e+00 0.0000e+00
      -15  1    3    3    0    0 +1.0446867424e+00 +3.6891405252e+00 +6.0374560661e+00 7.3695137510e+00 1.7770000000e+00 0.0000e+00 -1.0000e+00
       15  1    3    3    0    0 -1.0446936000e+00 -3.6891442168e+00 -5.8137870970e+02 5.8139406859e+02 1.7770000000e+00 0.0000e+00 -1.0000e+00
       22  1    3    3    0    0 +6.8575639914e-06 +3.6915978327e-06 -6.2246202159e-05 6.2731521277e-05 0.0000000000e+00 0.0000e+00 -1.0000e+00
<mgrwt>
<rscale>  2 0.12500000E+03</rscale>
<asrwt>0</asrwt>
<pdfrwt beam="1">  1       21 0.98693583E-03 0.12500000E+03</pdfrwt>
<pdfrwt beam="2">  1       21 0.85595965E-01 0.12500000E+03</pdfrwt>
<totfact> 0.39245036E+06</totfact>
</mgrwt>
</event>
<event>
 6      0 +4.1053447e-01 1.25000000e+02 7.54677100e-03 1.12640300e-01
       21 -1    0    0  502  501 +0.0000000000e+00 +0.0000000000e+00 +7.0415869821e+01 7.0415869821e+01 0.0000000000e+00 0.0000e+00 1.0000e+00
       21 -1    0    0  501  502 -0.0000000000e+00 -0.0000000000e+00 -5.5474000533e+01 5.5474000533e+01 0.0000000000e+00 0.0000e+00 1.0000e+00
       25  2    1    2    0    0 +0.0000000000e+00 +0.0000000000e+00 +1.4941869287e+01 1.2588987035e+02 1.2500000000e+02 0.0000e+00 0.0000e+00
      -15  1    3    3    0    0 +4.6324832741e+01 +1.6575041483e+01 -3.1304660805e+01 5.8342622890e+01 1.7770000000e+00 0.0000e+00 1.0000e+00
       15  1    3    3    0    0 -4.6324856494e+01 -1.6575051501e+01 +4.6246552593e+01 6.7547213245e+01 1.7770000000e+00 0.0000e+00 1.0000e+00
       22  1    3    3    0    0 +2.3753361942e-05 +1.0017363871e-05 -2.2501188445e-05 3.4218025423e-05 0.0000000000e+00 0.0000e+00 1.0000e+00
<mgrwt>
<rscale>  2 0.12500000E+03</rscale>
<asrwt>0</asrwt>
<pdfrwt beam="1">  1       21 0.10355275E-01 0.12500000E+03</pdfrwt>
<pdfrwt beam="2">  1       21 0.81579412E-02 0.12500000E+03</pdfrwt>
<totfact> 0.88831729E+06</totfact>
</mgrwt>
</event>
<event>
 6      0 +4.1053447e-01 1.25000000e+02 7.54677100e-03 1.12640300e-01
       21 -1    0    0  502  501 +0.0000000000e+00 +0.0000000000e+00 +8.0171194808e+00 8.0171194808e+00 0.0000000000e+00 0.0000e+00 1.0000e+00
       21 -1    0    0  501  502 -0.0000000000e+00 -0.0000000000e+00 -4.8723859104e+02 4.8723859104e+02 0.0000000000e+00 0.0000e+00 1.0000e+00
       25  2    1    2    0    0 +0.0000000000e+00 +0.0000000000e+00 -4.7922147156e+02 4.9525571052e+02 1.2500000000e+02 0.0000e+00 0.0000e+00
      -15  1    3    3    0    0 +6.9759747325e+00 -1.7601518313e+01 -4.7549409673e+02 4.7587421807e+02 1.7770000000e+00 0.0000e+00 1.0000e+00
       15  1    3    3    0    0 -6.9749942326e+00 +1.7560609871e+01 -3.7143958062e+00 1.9338563257e+01 1.7770000000e+00 0.0000e+00 1.0000e+00
       22  1    3    3    0    0 -9.8049992128e-04 +4.0908441563e-02 -1.2979047603e-02 4.2929216717e-02 0.0000000000e+00 0.0000e+00 1.0000e+00
<mgrwt>
<rscale>  2 0.12500000E+03</rscale>
<asrwt>0</asrwt>
<pdfrwt beam="1">  1       21 0.11789881E-02 0.12500000E+03</pdfrwt>
<pdfrwt beam="2">  1       21 0.71652737E-01 0.12500000E+03</pdfrwt>
<totfact> 0.45680917E+06</totfact>
</mgrwt>
</event>
<event>
 6      0 +4.1053447e-01 1.25000000e+02 7.54677100e-03 1.12640300e-01
       21 -1    0    0  502  501 +0.0000000000e+00 +0.0000000000e+00 +2.9359291627e+02 2.9359291627e+02 0.0000000000e+00 0.0000e+00 1.0000e+00
       21 -1    0    0  501  502 -0.0000000000e+00 -0.0000000000e+00 -1.3304987224e+01 1.3304987224e+01 0.0000000000e+00 0.0000e+00 1.0000e+00
       25  2    1    2    0    0 +0.0000000000e+00 +0.0000000000e+00 +2.8028792904e+02 3.0689790349e+02 1.2500000000e+02 0.0000e+00 0.0000e+00
      -15  1    3    3    0    0 +4.0604331348e+01 -2.4155423145e+01 +2.4050349623e+02 2.4510668212e+02 1.7770000000e+00 0.0000e+00 1.0000e+00
       15  1    3    3    0    0 -4.0604331399e+01 +2.4155423178e+01 +3.9784432411e+01 6.1791220966e+01 1.7770000000e+00 0.0000e+00 1.0000e+00
       22  1    3    3    0    0 +5.0414541235e-08 -3.3663032846e-08 +3.8951233237e-07 3.9420132270e-07 0.0000000000e+00 0.0000e+00 1.0000e+00
<mgrwt>
<rscale>  2 0.12500000E+03</rscale>
<asrwt>0</asrwt>
<pdfrwt beam="1">  1       21 0.43175425E-01 0.12500000E+03</pdfrwt>
<pdfrwt beam="2">  1       21 0.19566160E-02 0.12500000E+03</pdfrwt>
<totfact> 0.63164055E+06</totfact>
</mgrwt>
</event>
<event>
 6      0 +4.1053447e-01 1.25000000e+02 7.54677100e-03 1.12640300e-01
       21 -1    0    0  502  501 +0.0000000000e+00 +0.0000000000e+00 +2.2942869523e+02 2.2942869523e+02 0.0000000000e+00 0.0000e+00 1.0000e+00
       21 -1    0    0  501  502 -0.0000000000e+00 -0.0000000000e+00 -1.7025987077e+01 1.7025987077e+01 0.0000000000e+00 0.0000e+00 1.0000e+00
       25  2    1    2    0    0 +0.0000000000e+00 +0.0000000000e+00 +2.1240270815e+02 2.4645468230e+02 1.2500000000e+02 0.0000e+00 0.0000e+00
      -15  1    3    3    0    0 -2.7977183916e+01 +3.6099942158e+01 +7.3671335232e+01 8.6698050771e+01 1.7770000000e+00 0.0000e+00 -1.0000e+00
       15  1    3    3    0    0 +3.6335759033e+01 -5.0696212747e+01 +1.0888411391e+02 1.2549622051e+02 1.7770000000e+00 0.0000e+00 -1.0000e+00
       22  1    3    3    0    0 -8.3585751173e+00 +1.4596270589e+01 +2.9847259019e+01 3.4260411031e+01 0.0000000000e+00 0.0000e+00 1.0000e+00
<mgrwt>
<rscale>  2 0.12500000E+03</rscale>
<asrwt>0</asrwt>
<pdfrwt beam="1">  1       21 0.33739512E-01 0.12500000E+03</pdfrwt>
<pdfrwt beam="2">  1       21 0.25038218E-02 0.12500000E+03</pdfrwt>
<totfact> 0.70461129E+06</totfact>
</mgrwt>
</event>
<event>
 6      0 +4.1053447e-01 1.25000000e+02 7.54677100e-03 1.12640300e-01
       21 -1    0    0  502  501 +0.0000000000e+00 +0.0000000000e+00 +3.1437057555e+02 3.1437057555e+02 0.0000000000e+00 0.0000e+00 -1.0000e+00
       21 -1    0    0  501  502 -0.0000000000e+00 -0.0000000000e+00 -1.2425622192e+01 1.2425622192e+01 0.0000000000e+00 0.0000e+00 -1.0000e+00
       25  2    1    2    0    0 +0.0000000000e+00 +0.0000000000e+00 +3.0194495335e+02 3.2679619774e+02 1.2500000000e+02 0.0000e+00 0.0000e+00
      -15  1    3    3    0    0 +3.3098946085e+01 +3.5106157779e+01 +2.5473041609e+02 2.5926574235e+02 1.7770000000e+00 0.0000e+00 -1.0000e+00
       15  1    3    3    0    0 -3.3098823616e+01 -3.5106153083e+01 +4.7214551719e+01 6.7530331941e+01 1.7770000000e+00 0.0000e+00 -1.0000e+00
       22  1    3    3    0    0 -1.2246842221e-04 -4.6960780922e-06 -1.4492472162e-05 1.2341231438e-04 0.0000000000e+00 0.0000e+00 1.0000e+00
<mgrwt>
<rscale>  2 0.12500000E+03</rscale>
<asrwt>0</asrwt>
<pdfrwt beam="1">  1       21 0.46230962E-01 0.12500000E+03</pdfrwt>
<pdfrwt beam="2">  1       21 0.18272976E-02 0.12500000E+03</pdfrwt>
<totfact> 0.60967533E+06</totfact>
</mgrwt>
</event>
<event>
 6      0 +4.1053447e-01 1.25000000e+02 7.54677100e-03 1.12640300e-01
       21 -1    0    0  502  501 +0.0000000000e+00 +0.0000000000e+00 +4.9663358914e+00 4.9663358914e+00 0.0000000000e+00 0.0000e+00 1.0000e+00
       21 -1    0    0  501  502 -0.0000000000e+00 -0.0000000000e+00 -7.8654567178e+02 7.8654567178e+02 0.0000000000e+00 0.0000e+00 1.0000e+00
       25  2    1    2    0    0 +0.0000000000e+00 +0.0000000000e+00 -7.8157933589e+02 7.9151200768e+02 1.2500000000e+02 0.0000e+00 0.0000e+00
      -15  1    3    3    0    0 +5.2662117289e+00 +4.3566558182e+01 -1.0922044085e+02 1.1772017842e+02 1.7770000000e+00 0.0000e+00 1.0000e+00
       15  1    3    3    0    0 -5.2661916171e+00 -4.3566578826e+01 -6.7235882732e+02 6.7379175564e+02 1.7770000000e+00 0.0000e+00 1.0000e+00
       22  1    3    3    0    0 -2.0111806075e-05 +2.0643706715e-05 -6.7436093118e-05 7.3336716763e-05 0.0000000000e+00 0.0000e+00 -1.0000e+00
<mgrwt>
<rscale>  2 0.12500000E+03</rscale>
<asrwt>0</asrwt>
<pdfrwt beam="1">  1       21 0.73034340E-03 0.12500000E+03</pdfrwt>
<pdfrwt beam="2">  1       21 0.11566850E+00 0.12500000E+03</pdfrwt>
<totfact> 0.28644280E+06</totfact>
</mgrwt>
</event>
<event>
 6      0 +4.1053447e-01 1.25000000e+02 7.54677100e-03 1.12640300e-01
       21 -1    0    0  502  501 +0.0000000000e+00 +0.0000000000e+00 +3.5385838277e+02 3.5385838277e+02 0.0000000000e+00 0.0000e+00 1.0000e+00
       21 -1    0    0  501  502 -0.0000000000e+00 -0.0000000000e+00 -1.1039020665e+01 1.1039020665e+01 0.0000000000e+00 0.0000e+00 1.0000e+00
       25  2    1    2    0    0 +0.0000000000e+00 +0.0000000000e+00 +3.4281936211e+02 3.6489740344e+02 1.2500000000e+02 0.0000e+00 0.0000e+00
      -15  1    3    3    0    0 +2.4694623554e+01 -2.6708247305e+01 +2.3135565855e+01 4.3145880950e+01 1.7770000000e+00 0.0000e+00 -1.0000e+00
       15  1    3    3    0    0 -2.4694623513e+01 +2.6708247257e+01 +3.1968379600e+02 3.2175152222e+02 1.7770000000e+00 0.0000e+00 -1.0000e+00
       22  1    3    3    0    0 -4.0912865119e-08 +4.7675954989e-08 +2.6232637144e-07 2.6974429441e-07 0.0000000000e+00 0.0000e+00 -1.0000e+00
<mgrwt>
<rscale>  2 0.12500000E+03</rscale>
<asrwt>0</asrwt>
<pdfrwt beam="1">  1       21 0.52037990E-01 0.12500000E+03</pdfrwt>
<pdfrwt beam="2">  1       21 0.16233856E-02 0.12500000E+03</pdfrwt>
<totfact> 0.57025258E+06</totfact>
</mgrwt>
</event>
<event>
 6      0 +4.1053447e-01 1.25000000e+02 7.54677100e-03 1.12640300e-01
       21 -1    0    0  502  501 +0.0000000000e+00 +0.0000000000e+00 +1.8465296985e+01 1.8465296985e+01 0.0000000000e+00 0.0000e+00 -1.0000e+00
       21 -1    0    0  501  502 -0.0000000000e+00 -0.0000000000e+00 -2.1154547382e+02 2.1154547382e+02 0.0000000000e+00 0.0000e+00 -1.0000e+00
       25  2    1    2    0    0 +0.0000000000e+00 +0.0000000000e+00 -1.9308017684e+02 2.3001077081e+02 1.2500000000e+02 0.0000e+00 0.0000e+00
      -15  1    3    3    0    0 +6.1829697136e+00 -2.5553679992e+01 -2.0069780294e+02 2.0242031892e+02 1.7770000000e+00 0.0000e+00 1.0000e+00
       15  1    3    3    0    0 -6.1823685566e+00 +2.5566759015e+01 +7.7330193259e+00 2.7474318270e+01 1.7770000000e+00 0.0000e+00 1.0000e+00
       22  1    3    3    0    0 -6.0115694074e-04 -1.3079022832e-02 -1.1539322372e-01 1.1613362264e-01 0.0000000000e+00 0.0000e+00 1.0000e+00
<mgrwt>
<rscale>  2 0.12500000E+03</rscale>
<asrwt>0</asrwt>
<pdfrwt beam="1">  1       21 0.27154848E-02 0.12500000E+03</pdfrwt>
<pdfrwt beam="2">  1       21 0.31109629E-01 0.12500000E+03</pdfrwt>
<totfact> 0.72636019E+06</totfact>
</mgrwt>
</event>
<event>
 6      0 +4.1053447e-01 1.25000000e+02 7.54677100e-03 1.12640300e-01
       21 -1    0    0  502  501 +0.0000000000e+00 +0.0000000000e+00 +3.8031204234e+01 3.8031204234e+01 0.0000000000e+00 0.0000e+00 -1.0000e+00
       21 -1    0    0  501  502 -0.0000000000e+00 -0.0000000000e+00 -1.0271170947e+02 1.0271170947e+02 0.0000000000e+00 0.0000e+00 -1.0000e+00
       25  2    1    2    0    0 +0.0000000000e+00 +0.0000000000e+00 -6.4680505233e+01 1.4074291370e+02 1.2500000000e+02 0.0000e+00 0.0000e+00
      -15  1    3    3    0    0 -5.0708246957e+01 -2.0392413380e+01 -6.6414410036e+01 8.6030276196e+01 1.7770000000e+00 0.0000e+00 -1.0000e+00
       15  1    3    3    0    0 +5.0708750653e+01 +2.0392707570e+01 +1.7341164087e+00 5.4712016994e+01 1.7770000000e+00 0.0000e+00 -1.0000e+00
       22  1    3    3    0    0 -5.0369613222e-04 -2.9419003915e-04 -2.1160690402e-04 6.2051192944e-04 0.0000000000e+00 0.0000e+00 -1.0000e+00
<mgrwt>
<rscale>  2 0.12500000E+03</rscale>
<asrwt>0</asrwt>
<pdfrwt beam="1">  1       21 0.55928242E-02 0.12500000E+03</pdfrwt>
<pdfrwt beam="2">  1       21 0.15104663E-01 0.12500000E+03</pdfrwt>
<totfact> 0.86211769E+06</totfact>
</mgrwt>
</event>
<event>
 6      0 +4.1053447e-01 1.25000000e+02 7.54677100e-03 1.12640300e-01
       21 -1    0    0  502  501 +0.0000000000e+00 +0.0000000000e+00 +6.1754157949e+02 6.1754157949e+02 0.0000000000e+00 0.0000e+00 -1.0000e+00
       21 -1    0    0  501  502 -0.0000000000e+00 -0.0000000000e+00 -6.3254850033e+00 6.3254850033e+00 0.0000000000e+00 0.0000e+00 -1.0000e+00
       25  2    1    2    0    0 +0.0000000000e+00 +0.0000000000e+00 +6.1121609449e+02 6.2386706449e+02 1.2500000000e+02 0.0000e+00 0.0000e+00
      -15  1    3    3    0    0 -2.6456144679e+01 -2.9140711934e+01 +5.4775765019e+02 5.4917275037e+02 1.7770000000e+00 0.0000e+00 -1.0000e+00
       15  1    3    3    0    0 +2.6456144680e+01 +2.9140711933e+01 +6.3458444463e+01 7.4694314281e+01 1.7770000000e+00 0.0000e+00 -1.0000e+00
       22  1    3    3    0    0 -1.0340603619e-09 +1.1038545157e-09 +3.9196932188e-09 4.2014010227e-09 0.0000000000e+00 0.0000e+00 -1.0000e+00
<mgrwt>
<rscale>  2 0.12500000E+03</rscale>
<asrwt>0</asrwt>
<pdfrwt beam="1">  1       21 0.90814897E-01 0.12500000E+03</pdfrwt>
<pdfrwt beam="2">  1       21 0.93021881E-03 0.12500000E+03</pdfrwt>
<totfact> 0.37043944E+06</totfact>
</mgrwt>
</event>
<event>
 6      0 +4.1053447e-01 1.25000000e+02 7.54677100e-03 1.12640300e-01
       21 -1    0    0  502  501 +0.0000000000e+00 +0.0000000000e+00 +2.1496131317e+02 2.1496131317e+02 0.0000000000e+00 0.0000e+00 1.0000e+00
       21 -1    0    0  501  502 -0.0000000000e+00 -0.0000000000e+00 -1.8171874476e+01 1.8171874476e+01 0.0000000000e+00 0.0000e+00 1.0000e+00
       25  2    1    2    0    0 +0.0000000000e+00 +0.0000000000e+00 +1.9678943869e+02 2.3313318764e+02 1.2500000000e+02 0.0000e+00 0.0000e+00
      -15  1    3    3    0    0 +4.7249510674e+00 -6.2192588074e+01 +1.0508016542e+02 1.2220982803e+02 1.7770000000e+00 0.0000e+00 1.0000e+00
       15  1    3    3    0    0 -4.7249510693e+00 +6.2192588075e+01 +9.1709273268e+01 1.1092335961e+02 1.7770000000e+00 0.0000e+00 1.0000e+00
       22  1    3    3    0    0 +1.8366357938e-09 -1.0280244818e-09 +1.7445224986e-09 2.7337564124e-09 0.0000000000e+00 0.0000e+00 1.0000e+00
<mgrwt>
<rscale>  2 0.12500000E+03</rscale>
<asrwt>0</asrwt>
<pdfrwt beam="1">  1       21 0.31611956E-01 0.12500000E+03</pdfrwt>
<pdfrwt beam="2">  1       21 0.26723346E-02 0.12500000E+03</pdfrwt>
<totfact> 0.72218109E+06</totfact>
</mgrwt>
</event>
<event>
 6      0 +4.1053447e-01 1.25000000e+02 7.54677100e-03 1.12640300e-01
       21 -1    0    0  502  501 +0.0000000000e+00 +0.0000000000e+00 +1.3247392634e+02 1.3247392634e+02 0.0000000000e+00 0.0000e+00 1.0000e+00
       21 -1    0    0  501  502 -0.0000000000e+00 -0.0000000000e+00 -2.9486934585e+01 2.9486934585e+01 0.0000000000e+00 0.0000e+00 1.0000e+00
       25  2    1    2    0    0 +0.0000000000e+00 +0.0000000000e+00 +1.0298699175e+02 1.6196086092e+02 1.2500000000e+02 0.0000e+00 0.0000e+00
      -15  1    3    3    0    0 -3.4874478040e+00 +6.2370152391e+01 +5.1546446951e+01 8.1008592900e+01 1.7770000000e+00 0.0000e+00 -1.0000e+00
       15  1    3    3    0    0 +3.4140859232e+00 -6.2199493707e+01 +5.1242692050e+01 8.0680878885e+01 1.7770000000e+00 0.0000e+00 -1.0000e+00
       22  1    3    3    0    0 +7.3361880779e-02 -1.7065868335e-01 +1.9785274787e-01 2.7138913316e-01 0.0000000000e+00 0.0000e+00 1.0000e+00
<mgrwt>
<rscale>  2 0.12500000E+03</rscale>
<asrwt>0</asrwt>
<pdfrwt beam="1">  1       21 0.19481460E-01 0.12500000E+03</pdfrwt>
<pdfrwt beam="2">  1       21 0.43363139E-02 0.12500000E+03</pdfrwt>
<totfact> 0.82659654E+06</totfact>
</mgrwt>
</event>
<event>
 6      0 +4.1053447e-01 1.25000000e+02 7.54677100e-03 1.12640300e-01
       21 -1    0    0  502  501 +0.0000000000e+00 +0.0000000000e+00 +5.6251935853e+01 5.6251935853e+01 0.0000000000e+00 0.0000e+00 -1.0000e+00
       21 -1    0    0  501  502 -0.0000000000e+00 -0.0000000000e+00 -6.9442054585e+01 6.9442054585e+01 0.0000000000e+00 0.0000e+00 -1.0000e+00
       25  2    1    2    0    0 +0.0000000000e+00 +0.0000000000e+00 -1.3190118733e+01 1.2569399044e+02 1.2500000000e+02 0.0000e+00 0.0000e+00
      -15  1    3    3    0    0 +5.5510184323e+01 -1.6877177961e+01 -2.9894102257e+01 6.5291919701e+01 1.7770000000e+00 0.0000e+00 1.0000e+00
       15  1    3    3    0    0 -5.5510213582e+01 +1.6877188758e+01 +1.6704011907e+01 6.0402028568e+01 1.7770000000e+00 0.0000e+00 1.0000e+00
       22  1    3    3    0    0 +2.9259787190e-05 -1.0796279433e-05 -2.8382249383e-05 4.2169264590e-05 0.0000000000e+00 0.0000e+00 1.0000e+00
<mgrwt>
<rscale>  2 0.12500000E+03</rscale>
<asrwt>0</asrwt>
<pdfrwt beam="1">  1       21 0.82723435E-02 0.12500000E+03</pdfrwt>
<pdfrwt beam="2">  1       21 0.10212067E-01 0.12500000E+03</pdfrwt>
<totfact> 0.88867515E+06</totfact>
</mgrwt>
</event>
<event>
 6      0 +4.1053447e-01 1.25000000e+02 7.54677100e-03 1.12640300e-01
       21 -1    0    0  502  501 +0.0000000000e+00 +0.0000000000e+00 +7.5919515643e+01 7.5919515643e+01 0.0000000000e+00 0.0000e+00 1.0000e+00
       21 -1    0    0  501  502 -0.0000000000e+00 -0.0000000000e+00 -5.1452514770e+01 5.1452514770e+01 0.0000000000e+00 0.0000e+00 1.0000e+00
       25  2    1    2    0    0 +0.0000000000e+00 +0.0000000000e+00 +2.4467000873e+01 1.2737203041e+02 1.2500000000e+02 0.0000e+00 0.0000e+00
      -15  1    3    3    0    0 -1.2271834141e+01 +5.2732898726e+01 -1.9530716179e+01 5.7584400011e+01 1.7770000000e+00 0.0000e+00 1.0000e+00
       15  1    3    3    0    0 +1.2271834141e+01 -5.2732898731e+01 +4.3997717052e+01 6.9787630398e+01 1.7770000000e+00 0.0000e+00 1.0000e+00
       22  1    3    3    0    0 -1.7069532034e-10 +5.0991898077e-09 +3.3794233811e-10 5.1132258517e-09 0.0000000000e+00 0.0000e+00 -1.0000e+00
<mgrwt>
<rscale>  2 0.12500000E+03</rscale>
<asrwt>0</asrwt>
<pdfrwt beam="1">  1       21 0.11164635E-01 0.12500000E+03</pdfrwt>
<pdfrwt beam="2">  1       21 0.75665463E-02 0.12500000E+03</pdfrwt>
<totfact> 0.88567931E+06</totfact>
</mgrwt>
</event>
<event>
 6      0 +4.1053447e-01 1.25000000e+02 7.54677100e-03 1.12640300e-01
       21 -1    0    0  502  501 +0.0000000000e+00 +0.0000000000e+00 +3.4120633182e+02 3.4120633182e+02 0.0000000000e+00 0.0000e+00 1.0000e+00
       21 -1    0    0  501  502 -0.0000000000e+00 -0.0000000000e+00 -1.1448351439e+01 1.1448351439e+01 0.0000000000e+00 0.0000e+00 1.0000e+00
       25  2    1    2    0    0 +0.0000000000e+00 +0.0000000000e+00 +3.2975798038e+02 3.5265468326e+02 1.2500000000e+02 0.0000e+00 0.0000e+00
      -15  1    3    3    0    0 -4.0869002863e+01 -3.6504743105e+01 +2.4942267646e+02 2.5537756543e+02 1.7770000000e+00 0.0000e+00 1.0000e+00
       15  1    3    3    0    0 +4.0877148625e+01 +3.6510559482e+01 +8.0283005340e+01 9.7223870057e+01 1.7770000000e+00 0.0000e+00 1.0000e+00
       22  1    3    3    0    0 -8.1457614782e-03 -5.8163768923e-03 +5.2298567068e-02 5.3247758522e-02 0.0000000000e+00 0.0000e+00 1.0000e+00
<mgrwt>
<rscale>  2 0.12500000E+03</rscale>
<asrwt>0</asrwt>
<pdfrwt beam="1">  1       21 0.50177395E-01 0.12500000E+03</pdfrwt>
<pdfrwt beam="2">  1       21 0.16835813E-02 0.12500000E+03</pdfrwt>
<totfact> 0.58257735E+06</totfact>
</mgrwt>
</event>
<event>
 6      0 +4.1053447e-01 1.25000000e+02 7.54677100e-03 1.12640300e-01
       21 -1    0    0  502  501 +0.0000000000e+00 +0.0000000000e+00 +1.1646174426e+02 1.1646174426e+02 0.0000000000e+00 0.0000e+00 1.0000e+00
       21 -1    0    0  501  502 -0.0000000000e+00 -0.0000000000e+00 -3.3541056978e+01 3.3541056978e+01 0.0000000000e+00 0.0000e+00 1.0000e+00
       25  2    1    2    0    0 +0.0000000000e+00 +0.0000000000e+00 +8.2920687282e+01 1.5000280124e+02 1.2500000000e+02 0.0000e+00 0.0000e+00
      -15  1    3    3    0    0 +4.3542061089e+01 +2.7930510270e+01 +8.3468625076e+01 9.8215037488e+01 1.7770000000e+00 0.0000e+00 1.0000e+00
       15  1    3    3    0    0 -4.2730168582e+01 -2.7635548335e+01 -5.9729317902e-01 5.0922542424e+01 1.7770000000e+00 0.0000e+00 1.0000e+00
       22  1    3    3    0    0 -8.1189250741e-01 -2.9496193502e-01 +4.9355383200e-02 8.6522132462e-01 0.0000000000e+00 0.0000e+00 1.0000e+00
<mgrwt>
<rscale>  2 0.12500000E+03</rscale>
<asrwt>0</asrwt>
<pdfrwt beam="1">  1       21 0.17126727E-01 0.12500000E+03</pdfrwt>
<pdfrwt beam="2">  1       21 0.49325084E-02 0.12500000E+03</pdfrwt>
<totfact> 0.84624963E+06</totfact>
</mgrwt>
</event>
<event>
 6      0 +4.1053447e-01 1.25000000e+02 7.54677100e-03 1.12640300e-01
       21 -1    0    0  502  501 +0.0000000000e+00 +0.0000000000e+00 +1.5629437634e+01 1.5629437634e+01 0.0000000000e+00 0.0000e+00 -1.0000e+00
       21 -1    0    0  501  502 -0.0000000000e+00 -0.0000000000e+00 -2.4992901801e+02 2.4992901801e+02 0.0000000000e+00 0.0000e+00 -1.0000e+00
       25  2    1    2    0    0 +0.0000000000e+00 +0.0000000000e+00 -2.3429958037e+02 2.6555845564e+02 1.2500000000e+02 0.0000e+00 0.0000e+00
      -15  1    3    3    0    0 -7.3989237614e+00 -2.0623586428e+01 -2.4144505308e+02 2.4244370022e+02 1.7770000000e+00 0.0000e+00 1.0000e+00
       15  1    3    3    0    0 +7.3989237244e+00 +2.0623586443e+01 +7.1454730191e+00 2.3114755109e+01 1.7770000000e+00 0.0000e+00 1.0000e+00
       22  1    3    3    0    0 +3.7032300017e-08 -1.5114443874e-08 -3.0450342442e-07 3.0711915138e-07 0.0000000000e+00 0.0000e+00 1.0000e+00
<mgrwt>
<rscale>  2 0.12500000E+03</rscale>
<asrwt>0</asrwt>
<pdfrwt beam="1">  1       21 0.22984469E-02 0.12500000E+03</pdfrwt>
<pdfrwt beam="2">  1       21 0.36754264E-01 0.12500000E+03</pdfrwt>
<totfact> 0.68043665E+06</totfact>
</mgrwt>
</event>
<event>
 6      0 +4.1053447e-01 1.25000000e+02 7.54677100e-03 1.12640300e-01
       21 -1    0    0  502  501 +0.0000000000e+00 +0.0000000000e+00 +2.2094412950e+01 2.2094412950e+01 0.0000000000e+00 0.0000e+00 1.0000e+00
       21 -1    0    0  501  502 -0.0000000000e+00 -0.0000000000e+00 -1.7679808958e+02 1.7679808958e+02 0.0000000000e+00 0.0000e+00 1.0000e+00
       25  2    1    2    0    0 +0.0000000000e+00 +0.0000000000e+00 -1.5470367663e+02 1.9889250253e+02 1.2500000000e+02 0.0000e+00 0.0000e+00
      -15  1    3    3    0    0 -3.9372741517e+01 +4.7104221409e+01 -9.5775550968e+01 1.1377668628e+02 1.7770000000e+00 0.0000e+00 1.0000e+00
       15  1    3    3    0    0 +3.9372733538e+01 -4.7104210722e+01 -5.8928112501e+01 8.5115797511e+01 1.7770000000e+00 0.0000e+00 1.0000e+00
       22  1    3    3    0    0 +7.9792250172e-06 -1.0687203255e-05 -1.3161850675e-05 1.8738160488e-05 0.0000000000e+00 0.0000e+00 -1.0000e+00
<mgrwt>
<rscale>  2 0.12500000E+03</rscale>
<asrwt>0</asrwt>
<pdfrwt beam="1">  1       21 0.32491784E-02 0.12500000E+03</pdfrwt>
<pdfrwt beam="2">  1       21 0.25999719E-01 0.12500000E+03</pdfrwt>
<totfact> 0.76980801E+06</totfact>
</mgrwt>
</event>
<event>
 6      0 +4.1053447e-01 1.25000000e+02 7.54677100e-03 1.12640300e-01
       21 -1    0    0  502  501 +0.0000000000e+00 +0.0000000000e+00 +3.7757870706e+01 3.7757870706e+01 0.0000000000e+00 0.0000e+00 1.0000e+00
       21 -1    0    0  501  502 -0.0000000000e+00 -0.0000000000e+00 -1.0345525124e+02 1.0345525124e+02 0.0000000000e+00 0.0000e+00 1.0000e+00
       25  2    1    2    0    0 +0.0000000000e+00 +0.0000000000e+00 -6.5697380530e+01 1.4121312194e+02 1.2500000000e+02 0.0000e+00 0.0000e+00
      -15  1    3    3    0    0 +3.2210318358e+01 -2.9162921687e+00 -3.9592440853e+00 3.2631927793e+01 1.7770000000e+00 0.0000e+00 1.0000e+00
       15  1    3    3    0    0 -5.7103613833e+01 +4.2754925775e+00 -6.0934669459e+01 8.3637875514e+01 1.7770000000e+00 0.0000e+00 1.0000e+00
       22  1    3    3    0    0 +2.4893295474e+01 -1.3592004088e+00 -8.0346698761e-01 2.4943318635e+01 0.0000000000e+00 0.0000e+00 1.0000e+00
<mgrwt>
<rscale>  2 0.12500000E+03</rscale>
<asrwt>0</asrwt>
<pdfrwt beam="1">  1       21 0.55526281E-02 0.12500000E+03</pdfrwt>
<pdfrwt beam="2">  1       21 0.15214007E-01 0.12500000E+03</pdfrwt>
<totfact> 0.86130316E+06</totfact>
</mgrwt>
</event>
<event>
 6      0 +4.1053447e-01 1.25000000e+02 7.54677100e-03 1.12640300e-01
       21 -1    0    0  502  501 +0.0000000000e+00 +0.0000000000e+00 +4.9787226466e+01 4.9787226466e+01 0.0000000000e+00 0.0000e+00 1.0000e+00
       21 -1    0    0  501  502 -0.0000000000e+00 -0.0000000000e+00 -7.8458879461e+01 7.8458879461e+01 0.0000000000e+00 0.0000e+00 1.0000e+00
       25  2    1    2    0    0 +0.0000000000e+00 +0.0000000000e+00 -2.8671652994e+01 1.2824610593e+02 1.2500000000e+02 0.0000e+00 0.0000e+00
      -15  1    3    3    0    0 -1.6169700706e+00 -5.2501969705e+01 -3.5524386066e+01 6.3436670384e+01 1.7770000000e+00 0.0000e+00 -1.0000e+00
       15  1    3    3    0    0 -3.5599259636e+00 +5.0838222141e+01 +1.6617276774e+01 5.3632914519e+01 1.7770000000e+00 0.0000e+00 -1.0000e+00
       22  1    3    3    0    0 +5.1768960342e+00 +1.6637475632e+00 -9.7645437015e+00 1.1176521024e+01 0.0000000000e+00 0.0000e+00 1.0000e+00
<mgrwt>
<rscale>  2 0.12500000E+03</rscale>
<asrwt>0</asrwt>
<pdfrwt beam="1">  1       21 0.73216511E-02 0.12500000E+03</pdfrwt>
<pdfrwt beam="2">  1       21 0.11538070E-01 0.12500000E+03</pdfrwt>
<totfact> 0.88414138E+06</totfact>
</mgrwt>
</event>
<event>
 6      0 +4.1053447e-01 1.25000000e+02 7.54677100e-03 1.12640300e-01
       21 -1    0    0  502  501 +0.0000000000e+00 +0.0000000000e+00 +8.2232497934e+01 8.2232497934e+01 0.0000000000e+00 0.0000e+00 -1.0000e+00
       21 -1    0    0  501  502 -0.0000000000e+00 -0.0000000000e+00 -4.7502509326e+01 4.7502509326e+01 0.0000000000e+00 0.0000e+00 -1.0000e+00
       25  2    1    2    0    0 +0.0000000000e+00 +0.0000000000e+00 +3.4729988609e+01 1.2973500726e+02 1.2500000000e+02 0.0000e+00 0.0000e+00
      -15  1    3    3    0    0 +3.1828720291e+01 -5.2517683598e+01 +2.9279076351e+01 6.8055834186e+01 1.7770000000e+00 0.0000e+00 -1.0000e+00
       15  1    3    3    0    0 -3.1828981764e+01 +5.2518611906e+01 +5.4498986577e+00 6.1677773963e+01 1.7770000000e+00 0.0000e+00 -1.0000e+00
       22  1    3    3    0    0 +2.6147297688e-04 -9.2830784243e-04 +1.0136009332e-03 1.3991105816e-03 0.0000000000e+00 0.0000e+00 -1.0000e+00
<mgrwt>
<rscale>  2 0.12500000E+03</rscale>
<asrwt>0</asrwt>
<pdfrwt beam="1">  1       21 0.12093014E-01 0.12500000E+03</pdfrwt>
<pdfrwt beam="2">  1       21 0.69856631E-02 0.12500000E+03</pdfrwt>
<totfact> 0.88146258E+06</totfact>
</mgrwt>
</event>
<event>
 6      0 +4.1053447e-01 1.25000000e+02 7.54677100e-03 1.12640300e-01
       21 -1    0    0  502  501 +0.0000000000e+00 +0.0000000000e+00 +1.1445425576e+01 1.1445425576e+01 0.0000000000e+00 0.0000e+00 -1.0000e+00
       21 -1    0    0  501  502 -0.0000000000e+00 -0.0000000000e+00 -3.4129355644e+02 3.4129355644e+02 0.0000000000e+00 0.0000e+00 -1.0000e+00
       25  2    1    2    0    0 +0.0000000000e+00 +0.0000000000e+00 -3.2984813087e+02 3.5273898202e+02 1.2500000000e+02 0.0000e+00 0.0000e+00
      -15  1    3    3    0    0 -2.1561906396e+01 -5.3527836760e+01 -9.7377895796e+01 1.1320670225e+02 1.7770000000e+00 0.0000e+00 -1.0000e+00
       15  1    3    3    0    0 +2.1561906418e+01 +5.3527836802e+01 -2.3247023501e+02 2.3953227970e+02 1.7770000000e+00 0.0000e+00 -1.0000e+00
       22  1    3    3    0    0 -2.1866932915e-08 -4.2235031430e-08 -7.9621771815e-08 9.2744742072e-08 0.0000000000e+00 0.0000e+00 1.0000e+00
<mgrwt>
<rscale>  2 0.12500000E+03</rscale>
<asrwt>0</asrwt>
<pdfrwt beam="1">  1       21 0.16831507E-02 0.12500000E+03</pdfrwt>
<pdfrwt beam="2">  1       21 0.50190232E-01 0.12500000E+03</pdfrwt>
<totfact> 0.58249140E+06</totfact>
</mgrwt>
</event>
<event>
 6      0 +4.1053447e-01 1.25000000e+02 7.54677100e-03 1.12640300e-01
       21 -1    0    0  502  501 +0.0000000000e+00 +0.0000000000e+00 +1.0251778720e+02 1.0251778720e+02 0.0000000000e+00 0.0000e+00 1.0000e+00
       21 -1    0    0  501  502 -0.0000000000e+00 -0.0000000000e+00 -3.8103143920e+01 3.8103143920e+01 0.0000000000e+00 0.0000e+00 1.0000e+00
       25  2    1    2    0    0 +0.0000000000e+00 +0.0000000000e+00 +6.4414643280e+01 1.4062093112e+02 1.2500000000e+02 0.0000e+00 0.0000e+00
      -15  1    3    3    0    0 -9.6377398506e+00 +2.5478594956e+01 +9.5455292660e+01 9.9281999658e+01 1.7770000000e+00 0.0000e+00 -1.0000e+00
       15  1    3    3    0    0 +9.6389646044e+00 -2.5478319487e+01 -3.1041453807e+01 4.1337440485e+01 1.7770000000e+00 0.0000e+00 -1.0000e+00
       22  1    3    3    0    0 -1.2247537953e-03 -2.7546963016e-04 +8.0442679226e-04 1.4909754660e-03 0.0000000000e+00 0.0000e+00 -1.0000e+00
<mgrwt>
<rscale>  2 0.12500000E+03</rscale>
<asrwt>0</asrwt>
<pdfrwt beam="1">  1       21 0.15076145E-01 0.12500000E+03</pdfrwt>
<pdfrwt beam="2">  1       21 0.56034035E-02 0.12500000E+03</pdfrwt>
<totfact> 0.86232887E+06</totfact>
</mgrwt>
</event>
<event>
 6      0 +4.1053447e-01 1.25000000e+02 7.54677100e-03 1.12640300e-01
       21 -1    0    0  502  501 +0.0000000000e+00 +0.0000000000e+00 +3.7826987863e+00 3.7826987863e+00 0.0000000000e+00 0.0000e+00 1.0000e+00
       21 -1    0    0  501  502 -0.0000000000e+00 -0.0000000000e+00 -1.0326621866e+03 1.0326621866e+03 0.0000000000e+00 0.0000e+00 1.0000e+00
       25  2    1    2    0    0 +0.0000000000e+00 +0.0000000000e+00 -1.0288794878e+03 1.0364448854e+03 1.2500000000e+02 0.0000e+00 0.0000e+00
      -15  1    3    3    0    0 -1.1244910671e+01 +6.1443006344e+01 -5.2130854916e+02 5.2504042911e+02 1.7770000000e+00 0.0000e+00 -1.0000e+00
       15  1    3    3    0    0 +1.1234136777e+01 -6.1445170783e+01 -5.0749366764e+02 5.1132640776e+02 1.7770000000e+00 0.0000e+00 -1.0000e+00
       22  1    3    3    0    0 +1.0773893987e-02 +2.1644381889e-03 -7.7269143272e-02 7.8046666080e-02 0.0000000000e+00 0.0000e+00 -1.0000e+00
<mgrwt>
<rscale>  2 0.12500000E+03</rscale>
<asrwt>0</asrwt>
<pdfrwt beam="1">  1       21 0.55627975E-03 0.12500000E+03</pdfrwt>
<pdfrwt beam="2">  1       21 0.15186195E+00 0.12500000E+03</pdfrwt>
<totfact> 0.20117749E+06</totfact>
</mgrwt>
</event>
<event>
 6      0 +4.1053447e-01 1.25000000e+02 7.54677100e-03 1.12640300e-01
       21 -1    0    0  502  501 +0.0000000000e+00 +0.0000000000e+00 +2.8315426243e+00 2.8315426243e+00 0.0000000000e+00 0.0000e+00 1.0000e+00
       21 -1    0    0  501  502 -0.0000000000e+00 -0.0000000000e+00 -1.3795483658e+03 1.3795483658e+03 0.0000000000e+00 0.0000e+00 1.0000e+00
       25  2    1    2    0    0 +0.0000000000e+00 +0.0000000000e+00 -1.3767168232e+03 1.3823799084e+03 1.2500000000e+02 0.0000e+00 0.0000e+00
      -15  1    3    3    0    0 -4.9149262084e+01 -1.5437556232e+01 -2.9749933335e+02 3.0193207710e+02 1.7770000000e+00 0.0000e+00 1.0000e+00
       15  1    3    3    0    0 +4.9149262101e+01 +1.5437556203e+01 -1.0792174956e+03 1.0804478370e+03 1.7770000000e+00 0.0000e+00 1.0000e+00
       22  1    3    3    0    0 -1.7200443657e-08 +2.8300573625e-08 -1.9218532028e-07 1.9501788395e-07 0.0000000000e+00 0.0000e+00 -1.0000e+00
<mgrwt>
<rscale>  2 0.12500000E+03</rscale>
<asrwt>0</asrwt>
<pdfrwt beam="1">  1       21 0.41640301E-03 0.12500000E+03</pdfrwt>
<pdfrwt beam="2">  1       21 0.20287491E+00 0.12500000E+03</pdfrwt>
<totfact> 0.12469546E+06</totfact>
</mgrwt>
</event>
<event>
 6      0 +4.1053447e-01 1.25000000e+02 7.54677100e-03 1.12640300e-01
       21 -1    0    0  502  501 +0.0000000000e+00 +0.0000000000e+00 +4.1661613729e+02 4.1661613729e+02 0.0000000000e+00 0.0000e+00 1.0000e+00
       21 -1    0    0  501  502 -0.0000000000e+00 -0.0000000000e+00 -9.3761370488e+00 9.3761370488e+00 0.0000000000e+00 0.0000e+00 1.0000e+00
       25  2    1    2    0    0 +0.0000000000e+00 +0.0000000000e+00 +4.0724000024e+02 4.2599227434e+02 1.2500000000e+02 0.0000e+00 0.0000e+00
      -15  1    3    3    0    0 +3.6639740472e+01 -3.7964213220e+01 +9.8998882852e+01 1.1219486888e+02 1.7770000000e+00 0.0000e+00 1.0000e+00
       15  1    3    3    0    0 -3.8151196355e+01 +3.9136252264e+01 +3.0601489333e+02 3.1086240155e+02 1.7770000000e+00 0.0000e+00 1.0000e+00
       22  1    3    3    0    0 +1.5114558838e+00 -1.1720390442e+00 +2.2262240288e+00 2.9350038903e+00 0.0000000000e+00 0.0000e+00 1.0000e+00
<mgrwt>
<rscale>  2 0.12500000E+03</rscale>
<asrwt>0</asrwt>
<pdfrwt beam="1">  1       21 0.61267067E-01 0.12500000E+03</pdfrwt>
<pdfrwt beam="2">  1       21 0.13788440E-02 0.12500000E+03</pdfrwt>
<totfact> 0.51321189E+06</totfact>
</mgrwt>
</event>
<event>
 6      0 +4.1053447e-01 1.25000000e+02 7.54677100e-03 1.12640300e-01
       21 -1    0    0  502  501 +0.0000000000e+00 +0.0000000000e+00 +4.0699805247e+01 4.0699805247e+01 0.0000000000e+00 0.0000e+00 1.0000e+00
       21 -1    0    0  501  502 -0.0000000000e+00 -0.0000000000e+00 -9.5977117735e+01 9.5977117735e+01 0.0000000000e+00 0.0000e+00 1.0000e+00
       25  2    1    2    0    0 +0.0000000000e+00 +0.0000000000e+00 -5.5277312487e+01 1.3667692298e+02 1.2500000000e+02 0.0000e+00 0.0000e+00
      -15  1    3    3    0    0 -6.8526524299e+00 +4.9307380230e+01 -6.8912960415e+01 8.5031349705e+01 1.7770000000e+00 0.0000e+00 -1.0000e+00
       15  1    3    3    0    0 +6.8526524782e+00 -4.9307380302e+01 +1.3635648037e+01 5.1645573137e+01 1.7770000000e+00 0.0000e+00 -1.0000e+00
       22  1    3    3    0    0 -4.8271680185e-08 +7.1763634236e-08 -1.1045567618e-07 1.4028767126e-07 0.0000000000e+00 0.0000e+00 -1.0000e+00
<mgrwt>
<rscale>  2 0.12500000E+03</rscale>
<asrwt>0</asrwt>
<pdfrwt beam="1">  1       21 0.59852656E-02 0.12500000E+03</pdfrwt>
<pdfrwt beam="2">  1       21 0.14114282E-01 0.12500000E+03</pdfrwt>
<totfact> 0.86913965E+06</totfact>
</mgrwt>
</event>
<event>
 6      0 +4.1053447e-01 1.25000000e+02 7.54677100e-03 1.12640300e-01
       21 -1    0    0  502  501 +0.0000000000e+00 +0.0000000000e+00 +4.7323832572e+00 4.7323832572e+00 0.0000000000e+00 0.0000e+00 1.0000e+00
       21 -1    0    0  501  502 -0.0000000000e+00 -0.0000000000e+00 -8.2542976503e+02 8.2542976503e+02 0.0000000000e+00 0.0000e+00 1.0000e+00
       25  2    1    2    0    0 +0.0000000000e+00 +0.0000000000e+00 -8.2069738177e+02 8.3016214828e+02 1.2500000000e+02 0.0000e+00 0.0000e+00
      -15  1    3    3    0    0 -6.0135119559e+01 +5.2444821054e+00 -5.1730349323e+02 5.2081647347e+02 1.7770000000e+00 0.0000e+00 -1.0000e+00
       15  1    3    3    0    0 +6.0135117453e+01 -5.2444818806e+00 -3.0339387791e+02 3.0934566398e+02 1.7770000000e+00 0.0000e+00 -1.0000e+00
       22  1    3    3    0    0 +2.1061713578e-06 -2.2482478134e-07 -1.0819469471e-05 1.1024854811e-05 0.0000000000e+00 0.0000e+00 -1.0000e+00
<mgrwt>
<rscale>  2 0.12500000E+03</rscale>
<asrwt>0</asrwt>
<pdfrwt beam="1">  1       21 0.69593907E-03 0.12500000E+03</pdfrwt>
<pdfrwt beam="2">  1       21 0.12138667E+00 0.12500000E+03</pdfrwt>
<totfact> 0.27051927E+06</totfact>
</mgrwt>
</event>
<event>
 6      0 +4.1053447e-01 1.25000000e+02 7.54677100e-03 1.12640300e-01
       21 -1    0    0  502  501 +0.0000000000e+00 +0.0000000000e+00 +8.9694478272e+01 8.9694478272e+01 0.0000000000e+00 0.0000e+00 -1.0000e+00
       21 -1    0    0  501  502 -0.0000000000e+00 -0.0000000000e+00 -4.3550618447e+01 4.3550618447e+01 0.0000000000e+00 0.0000e+00 -1.0000e+00
       25  2    1    2    0    0 +0.0000000000e+00 +0.0000000000e+00 +4.6143859826e+01 1.3324509672e+02 1.2500000000e+02 0.0000e+00 0.0000e+00
      -15  1    3    3    0    0 -2.1182885418e+00 +6.0345577764e+01 +4.0161125300e+01 7.2540675599e+01 1.7770000000e+00 0.0000e+00 1.0000e+00
       15  1    3    3    0    0 +2.1182885415e+00 -6.0345577764e+01 +5.9827345249e+00 6.0704421119e+01 1.7770000000e+00 0.0000e+00 1.0000e+00
       22  1    3    3    0    0 +3.4718852505e-10 +2.6438716286e-10 +5.5239117679e-10 7.0397191422e-10 0.0000000000e+00 0.0000e+00 1.0000e+00
<mgrwt>
<rscale>  2 0.12500000E+03</rscale>
<asrwt>0</asrwt>
<pdfrwt beam="1">  1       21 0.13190364E-01 0.12500000E+03</pdfrwt>
<pdfrwt beam="2">  1       21 0.64045027E-02 0.12500000E+03</pdfrwt>
<totfact> 0.87514628E+06</totfact>
</mgrwt>
</event>
<event>
 6      0 +4.1053447e-01 1.25000000e+02 7.54677100e-03 1.12640300e-01
       21 -1    0    0  502  501 +0.0000000000e+00 +0.0000000000e+00 +9.7461484475e+00 9.7461484475e+00 0.0000000000e+00 0.0000e+00 -1.0000e+00
       21 -1    0    0  501  502 -0.0000000000e+00 -0.0000000000e+00 -4.0079935382e+02 4.0079935382e+02 0.0000000000e+00 0.0000e+00 -1.0000e+00
       25  2    1    2    0    0 +0.0000000000e+00 +0.0000000000e+00 -3.9105320537e+02 4.1054550227e+02 1.2500000000e+02 0.0000e+00 0.0000e+00
      -15  1    3    3    0    0 +5.2931797002e+01 +2.7809217968e+01 -1.3605007288e+02 1.4862001143e+02 1.7770000000e+00 0.0000e+00 1.0000e+00
       15  1    3    3    0    0 -5.2932050336e+01 -2.7809394357e+01 -2.5500240897e+02 2.6192470421e+02 1.7770000000e+00 0.0000e+00 1.0000e+00
       22  1    3    3    0    0 +2.5333396482e-04 +1.7638919368e-04 -7.2347367827e-04 7.8657829141e-04 0.0000000000e+00 0.0000e+00 1.0000e+00
<mgrwt>
<rscale>  2 0.12500000E+03</rscale>
<asrwt>0</asrwt>
<pdfrwt beam="1">  1       21 0.14332573E-02 0.12500000E+03</pdfrwt>
<pdfrwt beam="2">  1       21 0.58941075E-01 0.12500000E+03</pdfrwt>
<totfact> 0.52692915E+06</totfact>
</mgrwt>
</event>
<event>
 6      0 +4.1053447e-01 1.25000000e+02 7.54677100e-03 1.12640300e-01
       21 -1    0    0  502  501 +0.0000000000e+00 +0.0000000000e+00 +4.6567598978e+02 4.6567598978e+02 0.0000000000e+00 0.0000e+00 -1.0000e+00
       21 -1    0    0  501  502 -0.0000000000e+00 -0.0000000000e+00 -8.3883431522e+00 8.3883431522e+00 0.0000000000e+00 0.0000e+00 -1.0000e+00
       25  2    1    2    0    0 +0.0000000000e+00 +0.0000000000e+00 +4.5728764663e+02 4.7406433293e+02 1.2500000000e+02 0.0000e+00 0.0000e+00
      -15  1    3    3    0    0 +2.8217482018e+01 +5.7626642086e+00 +4.2823820920e+02 4.2920922187e+02 1.7770000000e+00 0.0000e+00 1.0000e+00
       15  1    3    3    0    0 -2.9614748183e+01 -7.0714561232e+00 +2.2146746386e+01 3.7691841374e+01 1.7770000000e+00 0.0000e+00 1.0000e+00
       22  1    3    3    0    0 +1.3972661649e+00 +1.3087919147e+00 +6.9026911113e+00 7.1632697555e+00 0.0000000000e+00 0.0000e+00 -1.0000e+00
<mgrwt>
<rscale>  2 0.12500000E+03</rscale>
<asrwt>0</asrwt>
<pdfrwt beam="1">  1       21 0.68481746E-01 0.12500000E+03</pdfrwt>
<pdfrwt beam="2">  1       21 0.12335802E-02 0.12500000E+03</pdfrwt>
<totfact> 0.47320339E+06</totfact>
</mgrwt>
</event>
<event>
 6      0 +4.1053447e-01 1.25000000e+02 7.54677100e-03 1.12640300e-01
       21 -1    0    0  502  501 +0.0000000000e+00 +0.0000000000e+00 +2.0957765596e+01 2.0957765596e+01 0.0000000000e+00 0.0000e+00 1.0000e+00
       21 -1    0    0  501  502 -0.0000000000e+00 -0.0000000000e+00 -1.8638675875e+02 1.8638675875e+02 0.0000000000e+00 0.0000e+00 1.0000e+00
       25  2    1    2    0    0 +0.0000000000e+00 +0.0000000000e+00 -1.6542899315e+02 2.0734452434e+02 1.2500000000e+02 0.0000e+00 0.0000e+00
      -15  1    3    3    0    0 +2.7749102922e+01 -4.2534645685e+01 -2.2360304830e+01 5.5518913514e+01 1.7770000000e+00 0.0000e+00 -1.0000e+00
       15  1    3    3    0    0 -2.7749102922e+01 +4.2534645683e+01 -1.4306868832e+02 1.5182561083e+02 1.7770000000e+00 0.0000e+00 -1.0000e+00
       22  1    3    3    0    0 -5.8092377839e-10 +1.9721340311e-09 -1.7114006284e-09 2.6750097540e-09 0.0000000000e+00 0.0000e+00 -1.0000e+00
<mgrwt>
<rscale>  2 0.12500000E+03</rscale>
<asrwt>0</asrwt>
<pdfrwt beam="1">  1       21 0.30820243E-02 0.12500000E+03</pdfrwt>
<pdfrwt beam="2">  1       21 0.27409818E-01 0.12500000E+03</pdfrwt>
<totfact> 0.75760676E+06</totfact>
</mgrwt>
</event>
<event>
 6      0 +4.1053447e-01 1.25000000e+02 7.54677100e-03 1.12640300e-01
       21 -1    0    0  502  501 +0.0000000000e+00 +0.0000000000e+00 +1.1945683634e+02 1.1945683634e+02 0.0000000000e+00 0.0000e+00 -1.0000e+00
       21 -1    0    0  501  502 -0.0000000000e+00 -0.0000000000e+00 -3.2700095865e+01 3.2700095865e+01 0.0000000000e+00 0.0000e+00 -1.0000e+00
       25  2    1    2    0    0 +0.0000000000e+00 +0.0000000000e+00 +8.6756740474e+01 1.5215693220e+02 1.2500000000e+02 0.0000e+00 0.0000e+00
      -15  1    3    3    0    0 -2.5651508841e+00 +2.3627841496e+01 +1.1370830151e+02 1.1617913089e+02 1.7770000000e+00 0.0000e+00 1.0000e+00
       15  1    3    3    0    0 +2.5653398274e+00 -2.3626524216e+01 -2.6949723587e+01 3.5975532593e+01 1.7770000000e+00 0.0000e+00 1.0000e+00
       22  1    3    3    0    0 -1.8894334148e-04 -1.3172803338e-03 -1.8374425496e-03 2.2687269970e-03 0.0000000000e+00 0.0000e+00 -1.0000e+00
<mgrwt>
<rscale>  2 0.12500000E+03</rscale>
<asrwt>0</asrwt>
<pdfrwt beam="1">  1       21 0.17567182E-01 0.12500000E+03</pdfrwt>
<pdfrwt beam="2">  1       21 0.48088377E-02 0.12500000E+03</pdfrwt>
<totfact> 0.84265340E+06</totfact>
</mgrwt>
</event>
<event>
 6      0 +4.1053447e-01 1.25000000e+02 7.54677100e-03 1.12640300e-01
       21 -1    0    0  502  501 +0.0000000000e+00 +0.0000000000e+00 +2.1873655562e+02 2.1873655562e+02 0.0000000000e+00 0.0000e+00 1.0000e+00
       21 -1    0    0  501  502 -0.0000000000e+00 -0.0000000000e+00 -1.7858240425e+01 1.7858240425e+01 0.0000000000e+00 0.0000e+00 1.0000e+00
       25  2    1    2    0    0 +0.0000000000e+00 +0.0000000000e+00 +2.0087831519e+02 2.3659479604e+02 1.2500000000e+02 0.0000e+00 0.0000e+00
      -15  1    3    3    0    0 +4.2252721932e+00 -2.1616746166e+01 +2.1109601146e+02 2.1224942973e+02 1.7770000000e+00 0.0000e+00 -1.0000e+00
       15  1    3    3    0    0 -4.2252360890e+00 +2.1616731508e+01 -1.0217704701e+01 2.4345326439e+01 1.7770000000e+00 0.0000e+00 -1.0000e+00
       22  1    3    3    0    0 -3.6104218172e-05 +1.4658663276e-05 +8.4351167882e-06 3.9869062870e-05 0.0000000000e+00 0.0000e+00 1.0000e+00
<mgrwt>
<rscale>  2 0.12500000E+03</rscale>
<asrwt>0</asrwt>
<pdfrwt beam="1">  1       21 0.32167139E-01 0.12500000E+03</pdfrwt>
<pdfrwt beam="2">  1       21 0.26262120E-02 0.12500000E+03</pdfrwt>
<totfact> 0.71757352E+06</totfact>
</mgrwt>
</event>
<event>
 6      0 +4.1053447e-01 1.25000000e+02 7.54677100e-03 1.12640300e-01
       21 -1    0    0  502  501 +0.0000000000e+00 +0.0000000000e+00 +2.6129933994e+01 2.6129933994e+01 0.0000000000e+00 0.0000e+00 -1.0000e+00
       21 -1    0    0  501  502 -0.0000000000e+00 -0.0000000000e+00 -1.4949329764e+02 1.4949329764e+02 0.0000000000e+00 0.0000e+00 -1.0000e+00
       25  2    1    2    0    0 +0.0000000000e+00 +0.0000000000e+00 -1.2336336365e+02 1.7562323164e+02 1.2500000000e+02 0.0000e+00 0.0000e+00
      -15  1    3    3    0    0 +4.0526281992e+01 +1.0205339412e+01 +3.5641999999e+00 4.1980825804e+01 1.7770000000e+00 0.0000e+00 1.0000e+00
       15  1    3    3    0    0 -4.0526281046e+01 -1.0205338677e+01 -1.2692756048e+02 1.3364240245e+02 1.7770000000e+00 0.0000e+00 1.0000e+00
       22  1    3    3    0    0 -9.4602094899e-07 -7.3484883491e-07 -3.1636884419e-06 3.3828808734e-06 0.0000000000e+00 0.0000e+00 1.0000e+00
<mgrwt>
<rscale>  2 0.12500000E+03</rscale>
<asrwt>0</asrwt>
<pdfrwt beam="1">  1       21 0.38426374E-02 0.12500000E+03</pdfrwt>
<pdfrwt beam="2">  1       21 0.21984308E-01 0.12500000E+03</pdfrwt>
<totfact> 0.80481255E+06</totfact>
</mgrwt>
</event>
<event>
 6      0 +4.1053447e-01 1.25000000e+02 7.54677100e-03 1.12640300e-01
       21 -1    0    0  502  501 +0.0000000000e+00 +0.0000000000e+00 +8.1886624545e+00 8.1886624545e+00 0.0000000000e+00 0.0000e+00 1.0000e+00
       21 -1    0    0  501  502 -0.0000000000e+00 -0.0000000000e+00 -4.7703150810e+02 4.7703150810e+02 0.0000000000e+00 0.0000e+00 1.0000e+00
       25  2    1    2    0    0 +0.0000000000e+00 +0.0000000000e+00 -4.6884284565e+02 4.8522017056e+02 1.2500000000e+02 0.0000e+00 0.0000e+00
      -15  1    3    3    0    0 +3.4208021176e+01 +2.7835876773e+01 -4.0618939491e+02 4.0858047801e+02 1.7770000000e+00 0.0000e+00 1.0000e+00
       15  1    3    3    0    0 -3.4208031004e+01 -2.7835887602e+01 -6.2653318196e+01 7.6639559196e+01 1.7770000000e+00 0.0000e+00 1.0000e+00
       22  1    3    3    0    0 +9.8286297808e-06 +1.0828515047e-05 -1.3253341058e-04 1.3333778018e-04 0.0000000000e+00 0.0000e+00 1.0000e+00
<mgrwt>
<rscale>  2 0.12500000E+03</rscale>
<asrwt>0</asrwt>
<pdfrwt beam="1">  1       21 0.12042152E-02 0.12500000E+03</pdfrwt>
<pdfrwt beam="2">  1       21 0.70151686E-01 0.12500000E+03</pdfrwt>
<totfact> 0.46445963E+06</totfact>
</mgrwt>
</event>
<event>
 6      0 +4.1053447e-01 1.25000000e+02 7.54677100e-03 1.12640300e-01
       21 -1    0    0  502  501 +0.0000000000e+00 +0.0000000000e+00 +2.8373395647e+01 2.8373395647e+01 0.0000000000e+00 0.0000e+00 1.0000e+00
       21 -1    0    0  501  502 -0.0000000000e+00 -0.0000000000e+00 -1.3767298242e+02 1.3767298242e+02 0.0000000000e+00 0.0000e+00 1.0000e+00
       25  2    1    2    0    0 +0.0000000000e+00 +0.0000000000e+00 -1.0929958677e+02 1.6604637806e+02 1.2500000000e+02 0.0000e+00 0.0000e+00
      -15  1    3    3    0    0 -1.1295060883e+01 -6.0682822758e+01 -6.7454819966e+01 9.1451046160e+01 1.7770000000e+00 0.0000e+00 -1.0000e+00
       15  1    3    3    0    0 +1.1119743194e+01 +6.0032982641e+01 -4.1364063810e+01 7.3768226205e+01 1.7770000000e+00 0.0000e+00 -1.0000e+00
       22  1    3    3    0    0 +1.7531768869e-01 +6.4984011627e-01 -4.8070299897e-01 8.2710570177e-01 0.0000000000e+00 0.0000e+00 1.0000e+00
<mgrwt>
<rscale>  2 0.12500000E+03</rscale>
<asrwt>0</asrwt>
<pdfrwt beam="1">  1       21 0.41725582E-02 0.12500000E+03</pdfrwt>
<pdfrwt beam="2">  1       21 0.20246027E-01 0.12500000E+03</pdfrwt>
<totfact> 0.81996967E+06</totfact>
</mgrwt>
</event>
<event>
 6      0 +4.1053447e-01 1.25000000e+02 7.54677100e-03 1.12640300e-01
       21 -1    0    0  502  501 +0.0000000000e+00 +0.0000000000e+00 +1.0934745124e+03 1.0934745124e+03 0.0000000000e+00 0.0000e+00 1.0000e+00
       21 -1    0    0  501  502 -0.0000000000e+00 -0.0000000000e+00 -3.5723283496e+00 3.5723283496e+00 0.0000000000e+00 0.0000e+00 1.0000e+00
       25  2    1    2    0    0 +0.0000000000e+00 +0.0000000000e+00 +1.0899021840e+03 1.0970468407e+03 1.2500000000e+02 0.0000e+00 0.0000e+00
      -15  1    3    3    0    0 +4.0656793739e+01 +2.7292903544e+00 +1.2933006003e+02 1.3560916658e+02 1.7770000000e+00 0.0000e+00 1.0000e+00
       15  1    3    3    0    0 -4.0656833646e+01 -2.7292908769e+00 +9.6057198430e+02 9.6143752886e+02 1.7770000000e+00 0.0000e+00 1.0000e+00
       22  1    3    3    0    0 +3.9907453125e-05 +5.2252078969e-07 +1.3959554706e-04 1.4518882395e-04 0.0000000000e+00 0.0000e+00 1.0000e+00
<mgrwt>
<rscale>  2 0.12500000E+03</rscale>
<asrwt>0</asrwt>
<pdfrwt beam="1">  1       21 0.16080484E+00 0.12500000E+03</pdfrwt>
<pdfrwt beam="2">  1       21 0.52534316E-03 0.12500000E+03</pdfrwt>
<totfact> 0.18483009E+06</totfact>
</mgrwt>
</event>
<event>
 6      0 +4.1053447e-01 1.25000000e+02 7.54677100e-03 1.12640300e-01
       21 -1    0    0  502  501 +0.0000000000e+00 +0.0000000000e+00 +6.5758809384e+02 6.5758809384e+02 0.0000000000e+00 0.0000e+00 -1.0000e+00
       21 -1    0    0  501  502 -0.0000000000e+00 -0.0000000000e+00 -5.9402687436e+00 5.9402687436e+00 0.0000000000e+00 0.0000e+00 -1.0000e+00
       25  2    1    2    0    0 +0.0000000000e+00 +0.0000000000e+00 +6.5164782509e+02 6.6352836258e+02 1.2500000000e+02 0.0000e+00 0.0000e+00
      -15  1    3    3    0    0 -5.9263870548e+01 -6.6113745131e+00 +2.2692954051e+02 2.3464034331e+02 1.7770000000e+00 0.0000e+00 -1.0000e+00
       15  1    3    3    0    0 +5.9250370358e+01 +6.6109278094e+00 +4.2466221291e+02 4.2883034356e+02 1.7770000000e+00 0.0000e+00 -1.0000e+00
       22  1    3    3    0    0 +1.3500189989e-02 +4.4670370583e-04 +5.6071588538e-02 5.7675624966e-02 0.0000000000e+00 0.0000e+00 -1.0000e+00
<mgrwt>
<rscale>  2 0.12500000E+03</rscale>
<asrwt>0</asrwt>
<pdfrwt beam="1">  1       21 0.96704081E-01 0.12500000E+03</pdfrwt>
<pdfrwt beam="2">  1       21 0.87356939E-03 0.12500000E+03</pdfrwt>
<totfact> 0.34820488E+06</totfact>
</mgrwt>
</event>
<event>
 6      0 +4.1053447e-01 1.25000000e+02 7.54677100e-03 1.12640300e-01
       21 -1    0    0  502  501 +0.0000000000e+00 +0.0000000000e+00 +4.9486877074e+01 4.9486877074e+01 0.0000000000e+00 0.0000e+00 1.0000e+00
       21 -1    0    0  501  502 -0.0000000000e+00 -0.0000000000e+00 -7.8935067860e+01 7.8935067860e+01 0.0000000000e+00 0.0000e+00 1.0000e+00
       25  2    1    2    0    0 +0.0000000000e+00 +0.0000000000e+00 -2.9448190786e+01 1.2842194493e+02 1.2500000000e+02 0.0000e+00 0.0000e+00
      -15  1    3    3    0    0 +4.6318169931e+01 -3.3577731228e+01 -4.0516242851e+01 7.0125320419e+01 1.7770000000e+00 0.0000e+00 1.0000e+00
       15  1    3    3    0    0 -4.6318168771e+01 +3.3577731181e+01 +1.1068051636e+01 5.8296623278e+01 1.7770000000e+00 0.0000e+00 1.0000e+00
       22  1    3    3    0    0 -1.1597404460e-06 +4.6775841475e-08 +4.2824231717e-07 1.2371650511e-06 0.0000000000e+00 0.0000e+00 1.0000e+00
<mgrwt>
<rscale>  2 0.12500000E+03</rscale>
<asrwt>0</asrwt>
<pdfrwt beam="1">  1       21 0.72774820E-02 0.12500000E+03</pdfrwt>
<pdfrwt beam="2">  1       21 0.11608098E-01 0.12500000E+03</pdfrwt>
<totfact> 0.88382873E+06</totfact>
</mgrwt>
</event>
<event>
 6      0 +4.1053447e-01 1.25000000e+02 7.54677100e-03 1.12640300e-01
       21 -1    0    0  502  501 +0.0000000000e+00 +0.0000000000e+00 +3.6993614376e+02 3.6993614376e+02 0.0000000000e+00 0.0000e+00 -1.0000e+00
       21 -1    0    0  501  502 -0.0000000000e+00 -0.0000000000e+00 -1.0559254795e+01 1.0559254795e+01 0.0000000000e+00 0.0000e+00 -1.0000e+00
       25  2    1    2    0    0 +0.0000000000e+00 +0.0000000000e+00 +3.5937688897e+02 3.8049539856e+02 1.2500000000e+02 0.0000e+00 0.0000e+00
      -15  1    3    3    0    0 +3.3149265026e+01 -4.7458785166e+01 +1.0818592567e+02 1.2271333384e+02 1.7770000000e+00 0.0000e+00 1.0000e+00
       15  1    3    3    0    0 -3.3148110187e+01 +4.7454586850e+01 +2.5118487151e+02 2.5777457677e+02 1.7770000000e+00 0.0000e+00 1.0000e+00
       22  1    3    3    0    0 -1.1548389657e-03 +4.1983162444e-03 +6.0917979701e-03 7.4879579882e-03 0.0000000000e+00 0.0000e+00 -1.0000e+00
<mgrwt>
<rscale>  2 0.12500000E+03</rscale>
<asrwt>0</asrwt>
<pdfrwt beam="1">  1       21 0.54402365E-01 0.12500000E+03</pdfrwt>
<pdfrwt beam="2">  1       21 0.15528318E-02 0.12500000E+03</pdfrwt>
<totfact> 0.55496844E+06</totfact>
</mgrwt>
</event>
<event>
 6      0 +4.1053447e-01 1.25000000e+02 7.54677100e-03 1.12640300e-01
       21 -1    0    0  502  501 +0.0000000000e+00 +0.0000000000e+00 +5.6266858176e+01 5.6266858176e+01 0.0000000000e+00 0.0000e+00 -1.0000e+00
       21 -1    0    0  501  502 -0.0000000000e+00 -0.0000000000e+00 -6.9423638117e+01 6.9423638117e+01 0.0000000000e+00 0.0000e+00 -1.0000e+00
       25  2    1    2    0    0 +0.0000000000e+00 +0.0000000000e+00 -1.3156779940e+01 1.2569049629e+02 1.2500000000e+02 0.0000e+00 0.0000e+00
      -15  1    3    3    0    0 +1.8325845790e+00 +5.5742546676e+00 +5.5963613117e+01 5.6298440507e+01 1.7770000000e+00 0.0000e+00 -1.0000e+00
       15  1    3    3    0    0 -1.8253078766e+00 -5.5676508741e+00 -6.9057928544e+01 6.9328823075e+01 1.7770000000e+00 0.0000e+00 -1.0000e+00
       22  1    3    3    0    0 -7.2767023663e-03 -6.6037934963e-03 -6.2464512328e-02 6.3232711363e-02 0.0000000000e+00 0.0000e+00 -1.0000e+00
<mgrwt>
<rscale>  2 0.12500000E+03</rscale>
<asrwt>0</asrwt>
<pdfrwt beam="1">  1       21 0.82745380E-02 0.12500000E+03</pdfrwt>
<pdfrwt beam="2">  1       21 0.10209359E-01 0.12500000E+03</pdfrwt>
<totfact> 0.88868157E+06</totfact>
</mgrwt>
</event>
<event>
 6      0 +4.1053447e-01 1.25000000e+02 7.54677100e-03 1.12640300e-01
       21 -1    0    0  502  501 +0.0000000000e+00 +0.0000000000e+00 +9.1946896034e+00 9.1946896034e+00 0.0000000000e+00 0.0000e+00 1.0000e+00
       21 -1    0    0  501  502 -0.0000000000e+00 -0.0000000000e+00 -4.2483761481e+02 4.2483761481e+02 0.0000000000e+00 0.0000e+00 1.0000e+00
       25  2    1    2    0    0 +0.0000000000e+00 +0.0000000000e+00 -4.1564292520e+02 4.3403230441e+02 1.2500000000e+02 0.0000e+00 0.0000e+00
      -15  1    3    3    0    0 +1.9545538819e+01 -5.1024995738e+01 -3.1299306241e+02 3.1773163696e+02 1.7770000000e+00 0.0000e+00 -1.0000e+00
       15  1    3    3    0    0 -1.9545689128e+01 +5.1025365897e+01 -1.0264754367e+02 1.1629831418e+02 1.7770000000e+00 0.0000e+00 -1.0000e+00
       22  1    3    3    0    0 +1.5030937135e-04 -3.7015919892e-04 -2.3190852036e-03 2.3532460392e-03 0.0000000000e+00 0.0000e+00 1.0000e+00
<mgrwt>
<rscale>  2 0.12500000E+03</rscale>
<asrwt>0</asrwt>
<pdfrwt beam="1">  1       21 0.13521602E-02 0.12500000E+03</pdfrwt>
<pdfrwt beam="2">  1       21 0.62476120E-01 0.12500000E+03</pdfrwt>
<totfact> 0.50624756E+06</totfact>
</mgrwt>
</event>
<event>
 6      0 +4.1053447e-01 1.25000000e+02 7.54677100e-03 1.12640300e-01
       21 -1    0    0  502  501 +0.0000000000e+00 +0.0000000000e+00 +8.5591551001e+02 8.5591551001e+02 0.0000000000e+00 0.0000e+00 -1.0000e+00
       21 -1    0    0  501  502 -0.0000000000e+00 -0.0000000000e+00 -4.5638266328e+00 4.5638266328e+00 0.0000000000e+00 0.0000e+00 -1.0000e+00
       25  2    1    2    0    0 +0.0000000000e+00 +0.0000000000e+00 +8.5135168337e+02 8.6047933664e+02 1.2500000000e+02 0.0000e+00 0.0000e+00
      -15  1    3    3    0    0 -2.9460100871e+01 +3.4968206380e+00 +8.0414874666e+02 8.0469776300e+02 1.7770000000e+00 0.0000e+00 -1.0000e+00
       15  1    3    3    0    0 +2.9460460990e+01 -3.4968451044e+00 +4.7193521742e+01 5.5772151750e+01 1.7770000000e+00 0.0000e+00 -1.0000e+00
       22  1    3    3    0    0 -3.6011932632e-04 +2.4466389946e-05 +9.4147595756e-03 9.4216761991e-03 0.0000000000e+00 0.0000e+00 1.0000e+00
<mgrwt>
<rscale>  2 0.12500000E+03</rscale>
<asrwt>0</asrwt>
<pdfrwt beam="1">  1       21 0.12586982E+00 0.12500000E+03</pdfrwt>
<pdfrwt beam="2">  1       21 0.67115157E-03 0.12500000E+03</pdfrwt>
<totfact> 0.25871842E+06</totfact>
</mgrwt>
</event>
<event>
 6      0 +4.1053447e-01 1.25000000e+02 7.54677100e-03 1.12640300e-01
       21 -1    0    0  502  501 +0.0000000000e+00 +0.0000000000e+00 +4.2587085839e+00 4.2587085839e+00 0.0000000000e+00 0.0000e+00 -1.0000e+00
       21 -1    0    0  501  502 -0.0000000000e+00 -0.0000000000e+00 -9.1723815402e+02 9.1723815402e+02 0.0000000000e+00 0.0000e+00 -1.0000e+00
       25  2    1    2    0    0 +0.0000000000e+00 +0.0000000000e+00 -9.1297944543e+02 9.2149686260e+02 1.2500000000e+02 0.0000e+00 0.0000e+00
      -15  1    3    3    0    0 -1.5231495529e+01 +6.0589519700e+01 -4.5602980943e+02 4.6029276897e+02 1.7770000000e+00 0.0000e+00 1.0000e+00
       15  1    3    3    0    0 +1.5231491721e+01 -6.0589511076e+01 -4.5694954829e+02 4.6120400541e+02 1.7770000000e+00 0.0000e+00 1.0000e+00
       22  1    3    3    0    0 +3.8084796970e-06 -8.6236392018e-06 -8.7589671513e-05 8.8095528981e-05 0.0000000000e+00 0.0000e+00 1.0000e+00
<mgrwt>
<rscale>  2 0.12500000E+03</rscale>
<asrwt>0</asrwt>
<pdfrwt beam="1">  1       21 0.62628033E-03 0.12500000E+03</pdfrwt>
<pdfrwt beam="2">  1       21 0.13488804E+00 0.12500000E+03</pdfrwt>
<totfact> 0.23686397E+06</totfact>
</mgrwt>
</event>
<event>
 6      0 +4.1053447e-01 1.25000000e+02 7.54677100e-03 1.12640300e-01
       21 -1    0    0  502  501 +0.0000000000e+00 +0.0000000000e+00 +8.8964244132e+00 8.8964244132e+00 0.0000000000e+00 0.0000e+00 1.0000e+00
       21 -1    0    0  501  502 -0.0000000000e+00 -0.0000000000e+00 -4.3908089571e+02 4.3908089571e+02 0.0000000000e+00 0.0000e+00 1.0000e+00
       25  2    1    2    0    0 +0.0000000000e+00 +0.0000000000e+00 -4.3018447130e+02 4.4797732013e+02 1.2500000000e+02 0.0000e+00 0.0000e+00
      -15  1    3    3    0    0 -1.6861195010e+01 -2.9941129528e+01 -4.0208107726e+02 4.0355064311e+02 1.7770000000e+00 0.0000e+00 1.0000e+00
       15  1    3    3    0    0 +1.6861195098e+01 +2.9941129426e+01 -2.8103393694e+01 4.4426676643e+01 1.7770000000e+00 0.0000e+00 1.0000e+00
       22  1    3    3    0    0 -8.7456940000e-08 +1.0189732029e-07 -2.9822164789e-07 3.2705952288e-07 0.0000000000e+00 0.0000e+00 1.0000e+00
<mgrwt>
<rscale>  2 0.12500000E+03</rscale>
<asrwt>0</asrwt>
<pdfrwt beam="1">  1       21 0.13082973E-02 0.12500000E+03</pdfrwt>
<pdfrwt beam="2">  1       21 0.64570740E-01 0.12500000E+03</pdfrwt>
<totfact> 0.49444045E+06</totfact>
</mgrwt>
</event>
<event>
 6      0 +4.1053447e-01 1.25000000e+02 7.54677100e-03 1.12640300e-01
       21 -1    0    0  502  501 +0.0000000000e+00 +0.0000000000e+00 +8.1399508700e+01 8.1399508700e+01 0.0000000000e+00 0.0000e+00 -1.0000e+00
       21 -1    0    0  501  502 -0.0000000000e+00 -0.0000000000e+00 -4.7988618880e+01 4.7988618880e+01 0.0000000000e+00 0.0000e+00 -1.0000e+00
       25  2    1    2    0    0 +0.0000000000e+00 +0.0000000000e+00 +3.3410889820e+01 1.2938812758e+02 1.2500000000e+02 0.0000e+00 0.0000e+00
      -15  1    3    3    0    0 +4.9328283720e+00 -4.4626231809e+01 +6.1592460404e+01 7.6240555276e+01 1.7770000000e+00 0.0000e+00 -1.0000e+00
       15  1    3    3    0    0 -4.9357104405e+00 +4.4658335119e+01 -2.8227678830e+01 5.3091314867e+01 1.7770000000e+00 0.0000e+00 -1.0000e+00
       22  1    3    3    0    0 +2.8820684269e-03 -3.2103309250e-02 +4.6108246559e-02 5.6257436699e-02 0.0000000000e+00 0.0000e+00 -1.0000e+00
<mgrwt>
<rscale>  2 0.12500000E+03</rscale>
<asrwt>0</asrwt>
<pdfrwt beam="1">  1       21 0.11970516E-01 0.12500000E+03</pdfrwt>
<pdfrwt beam="2">  1       21 0.70571498E-02 0.12500000E+03</pdfrwt>
<totfact> 0.88209230E+06</totfact>
</mgrwt>
</event>
<event>
 6      0 +4.1053447e-01 1.25000000e+02 7.54677100e-03 1.12640300e-01
       21 -1    0    0  502  501 +0.0000000000e+00 +0.0000000000e+00 +1.3059342945e+02 1.3059342945e+02 0.0000000000e+00 0.0000e+00 -1.0000e+00
       21 -1    0    0  501  502 -0.0000000000e+00 -0.0000000000e+00 -2.9911535493e+01 2.9911535493e+01 0.0000000000e+00 0.0000e+00 -1.0000e+00
       25  2    1    2    0    0 +0.0000000000e+00 +0.0000000000e+00 +1.0068189395e+02 1.6050496494e+02 1.2500000000e+02 0.0000e+00 0.0000e+00
      -15  1    3    3    0    0 +3.5426168802e+01 -6.7765875571e+00 -1.5159637720e+01 3.9165136533e+01 1.7770000000e+00 0.0000e+00 1.0000e+00
       15  1    3    3    0    0 -3.5426169255e+01 +6.7765876147e+00 +1.1584153185e+02 1.2133982791e+02 1.7770000000e+00 0.0000e+00 1.0000e+00
       22  1    3    3    0    0 +4.5294869928e-07 -5.7553911569e-08 -1.7986723943e-07 4.9074148055e-07 0.0000000000e+00 0.0000e+00 -1.0000e+00
<mgrwt>
<rscale>  2 0.12500000E+03</rscale>
<asrwt>0</asrwt>
<pdfrwt beam="1">  1       21 0.19204916E-01 0.12500000E+03</pdfrwt>
<pdfrwt beam="2">  1       21 0.43987553E-02 0.12500000E+03</pdfrwt>
<totfact> 0.82896462E+06</totfact>
</mgrwt>
</event>
<event>
 6      0 +4.1053447e-01 1.25000000e+02 7.54677100e-03 1.12640300e-01
       21 -1    0    0  502  501 +0.0000000000e+00 +0.0000000000e+00 +4.8526054930e+01 4.8526054930e+01 0.0000000000e+00 0.0000e+00 1.0000e+00
       21 -1    0    0  501  502 -0.0000000000e+00 -0.0000000000e+00 -8.0497992380e+01 8.0497992380e+01 0.0000000000e+00 0.0000e+00 1.0000e+00
       25  2    1    2    0    0 +0.0000000000e+00 +0.0000000000e+00 -3.1971937450e+01 1.2902404731e+02 1.2500000000e+02 0.0000e+00 0.0000e+00
      -15  1    3    3    0    0 +4.7868561093e+01 +2.2446876264e+01 +1.8369266002e+01 5.5998652283e+01 1.7770000000e+00 0.0000e+00 1.0000e+00
       15  1    3    3    0    0 -4.7868567036e+01 -2.2447091213e+01 -5.0340359887e+01 7.3024524488e+01 1.7770000000e+00 0.0000e+00 1.0000e+00
       22  1    3    3    0    0 +5.9429479042e-06 +2.1494902498e-04 -8.4356375932e-04 8.7053903876e-04 0.0000000000e+00 0.0000e+00 1.0000e+00
<mgrwt>
<rscale>  2 0.12500000E+03</rscale>
<asrwt>0</asrwt>
<pdfrwt beam="1">  1       21 0.71361847E-02 0.12500000E+03</pdfrwt>
<pdfrwt beam="2">  1       21 0.11837940E-01 0.12500000E+03</pdfrwt>
<totfact> 0.88274993E+06</totfact>
</mgrwt>
</event>
<event>
 6      0 +4.1053447e-01 1.25000000e+02 7.54677100e-03 1.12640300e-01
       21 -1    0    0  502  501 +0.0000000000e+00 +0.0000000000e+00 +4.2708842120e+02 4.2708842120e+02 0.0000000000e+00 0.0000e+00 -1.0000e+00
       21 -1    0    0  501  502 -0.0000000000e+00 -0.0000000000e+00 -9.1462325040e+00 9.1462325040e+00 0.0000000000e+00 0.0000e+00 -1.0000e+00
       25  2    1    2    0    0 +0.0000000000e+00 +0.0000000000e+00 +4.1794218869e+02 4.3623465370e+02 1.2500000000e+02 0.0000e+00 0.0000e+00
      -15  1    3    3    0    0 -2.3494522007e+01 +2.6426076664e+01 +2.9225064066e+01 4.5908519807e+01 1.7770000000e+00 0.0000e+00 1.0000e+00
       15  1    3    3    0    0 +2.3494522020e+01 -2.6426076637e+01 +3.8871712448e+02 3.9032613374e+02 1.7770000000e+00 0.0000e+00 1.0000e+00
       22  1    3    3    0    0 -1.3037829694e-08 -2.6321594374e-08 +1.2648228531e-07 1.2984829544e-07 0.0000000000e+00 0.0000e+00 -1.0000e+00
<mgrwt>
<rscale>  2 0.12500000E+03</rscale>
<asrwt>0</asrwt>
<pdfrwt beam="1">  1       21 0.62807107E-01 0.12500000E+03</pdfrwt>
<pdfrwt beam="2">  1       21 0.13450345E-02 0.12500000E+03</pdfrwt>
<totfact> 0.50436032E+06</totfact>
</mgrwt>
</event>
<event>
 6      0 +4.1053447e-01 1.25000000e+02 7.54677100e-03 1.12640300e-01
       21 -1    0    0  502  501 +0.0000000000e+00 +0.0000000000e+00 +5.5485650477e+00 5.5485650477e+00 0.0000000000e+00 0.0000e+00 1.0000e+00
       21 -1    0    0  501  502 -0.0000000000e+00 -0.0000000000e+00 -7.0401085081e+02 7.0401085081e+02 0.0000000000e+00 0.0000e+00 1.0000e+00
       25  2    1    2    0    0 +0.0000000000e+00 +0.0000000000e+00 -6.9846228576e+02 7.0955941585e+02 1.2500000000e+02 0.0000e+00 0.0000e+00
      -15  1    3    3    0    0 +7.3810859468e+00 -4.3719185466e+01 -5.9907633199e+02 6.0071745179e+02 1.7770000000e+00 0.0000e+00 1.0000e+00
       15  1    3    3    0    0 -7.3810858820e+00 +4.3719185323e+01 -9.9385953626e+01 1.0884196388e+02 1.7770000000e+00 0.0000e+00 1.0000e+00
       22  1    3    3    0    0 -6.4766656751e-08 +1.4273212727e-07 -3.1252091958e-07 3.4962337616e-07 0.0000000000e+00 0.0000e+00 -1.0000e+00
<mgrwt>
<rscale>  2 0.12500000E+03</rscale>
<asrwt>0</asrwt>
<pdfrwt beam="1">  1       21 0.81596512E-03 0.12500000E+03</pdfrwt>
<pdfrwt beam="2">  1       21 0.10353105E+00 0.12500000E+03</pdfrwt>
<totfact> 0.32431140E+06</totfact>
</mgrwt>
</event>
<event>
 6      0 +4.1053447e-01 1.25000000e+02 7.54677100e-03 1.12640300e-01
       21 -1    0    0  502  501 +0.0000000000e+00 +0.0000000000e+00 +4.4173665965e+00 4.4173665965e+00 0.0000000000e+00 0.0000e+00 -1.0000e+00
       21 -1    0    0  501  502 -0.0000000000e+00 -0.0000000000e+00 -8.8429382408e+02 8.8429382408e+02 0.0000000000e+00 0.0000e+00 -1.0000e+00
       25  2    1    2    0    0 +0.0000000000e+00 +0.0000000000e+00 -8.7987645749e+02 8.8871119068e+02 1.2500000000e+02 0.0000e+00 0.0000e+00
      -15  1    3    3    0    0 +3.4983119905e+01 +8.0752953535e+00 -1.4599538236e+02 1.5035570649e+02 1.7770000000e+00 0.0000e+00 -1.0000e+00
       15  1    3    3    0    0 -5.7156925030e+01 -7.8066142309e+00 -5.8363615822e+02 5.8648288996e+02 1.7770000000e+00 0.0000e+00 -1.0000e+00
       22  1    3    3    0    0 +2.2173805125e+01 -2.6868112260e-01 -1.5024491706e+02 1.5187259439e+02 0.0000000000e+00 0.0000e+00 -1.0000e+00
<mgrwt>
<rscale>  2 0.12500000E+03</rscale>
<asrwt>0</asrwt>
<pdfrwt beam="1">  1       21 0.64961243E-03 0.12500000E+03</pdfrwt>
<pdfrwt beam="2">  1       21 0.13004327E+00 0.12500000E+03</pdfrwt>
<totfact> 0.24831751E+06</totfact>
</mgrwt>
</event>
<event>
 6      0 +4.1053447e-01 1.25000000e+02 7.54677100e-03 1.12640300e-01
       21 -1    0    0  502  501 +0.0000000000e+00 +0.0000000000e+00 +7.7601706494e+00 7.7601706494e+00 0.0000000000e+00 0.0000e+00 1.0000e+00
       21 -1    0    0  501  502 -0.0000000000e+00 -0.0000000000e+00 -5.0337166236e+02 5.0337166236e+02 0.0000000000e+00 0.0000e+00 1.0000e+00
       25  2    1    2    0    0 +0.0000000000e+00 +0.0000000000e+00 -4.9561149172e+02 5.1113183301e+02 1.2500000000e+02 0.0000e+00 0.0000e+00
      -15  1    3    3    0    0 +1.5614948509e+01 +4.8605344999e+01 -1.0055514091e+02 1.1278652522e+02 1.7770000000e+00 0.0000e+00 -1.0000e+00
       15  1    3    3    0    0 -1.5614944870e+01 -4.8605338636e+01 -3.9505629347e+02 3.9834524998e+02 1.7770000000e+00 0.0000e+00 -1.0000e+00
       22  1    3    3    0    0 -3.6382792891e-06 -6.3633661130e-06 -5.7482013407e-05 5.7947488037e-05 0.0000000000e+00 0.0000e+00 1.0000e+00
<mgrwt>
<rscale>  2 0.12500000E+03</rscale>
<asrwt>0</asrwt>
<pdfrwt beam="1">  1       21 0.11412012E-02 0.12500000E+03</pdfrwt>
<pdfrwt beam="2">  1       21 0.74025268E-01 0.12500000E+03</pdfrwt>
<totfact> 0.44508304E+06</totfact>
</mgrwt>
</event>
<event>
 6      0 +4.1053447e-01 1.25000000e+02 7.54677100e-03 1.12640300e-01
       21 -1    0    0  502  501 +0.0000000000e+00 +0.0000000000e+00 +3.0671714647e+01 3.0671714647e+01 0.0000000000e+00 0.0000e+00 1.0000e+00
       21 -1    0    0  501  502 -0.0000000000e+00 -0.0000000000e+00 -1.2735675344e+02 1.2735675344e+02 0.0000000000e+00 0.0000e+00 1.0000e+00
       25  2    1    2    0    0 +0.0000000000e+00 +0.0000000000e+00 -9.6685038798e+01 1.5802846809e+02 1.2500000000e+02 0.0000e+00 0.0000e+00
      -15  1    3    3    0    0 +3.9183323494e+01 -4.4431316664e+01 -2.3261336225e+01 6.3668848211e+01 1.7770000000e+00 0.0000e+00 1.0000e+00
       15  1    3    3    0    0 -3.9160475657e+01 +4.4409140191e+01 -7.3392172650e+01 9.4314809662e+01 1.7770000000e+00 0.0000e+00 1.0000e+00
       22  1    3    3    0    0 -2.2847837737e-02 +2.2176473367e-02 -3.1529925270e-02 4.4810220349e-02 0.0000000000e+00 0.0000e+00 1.0000e+00
<mgrwt>
<rscale>  2 0.12500000E+03</rscale>
<asrwt>0</asrwt>
<pdfrwt beam="1">  1       21 0.45105462E-02 0.12500000E+03</pdfrwt>
<pdfrwt beam="2">  1       21 0.18728935E-01 0.12500000E+03</pdfrwt>
<totfact> 0.83299923E+06</totfact>
</mgrwt>
</event>
</LesHouchesEvents>
